/*--------------------------------*- C++ -*----------------------------------*\
  =========                 |
  \\      /  F ield         | OpenFOAM: The Open Source CFD Toolbox
   \\    /   O peration     | Website:  https://openfoam.org
    \\  /    A nd           | Version:  7
     \\/     M anipulation  |
\*---------------------------------------------------------------------------*/
FoamFile
{
    version     2.0;
    format      ascii;
    class       surfaceScalarField;
    location    "3.8";
    object      alphaPhi0.water;
}
// * * * * * * * * * * * * * * * * * * * * * * * * * * * * * * * * * * * * * //

dimensions      [0 3 -1 0 0 0 0];

internalField   nonuniform List<scalar> 
11840
(
0
0
0
0
0
0
0
0
0
0
0
0
0
0
0
0
0
0
0
0
0
0
0
0
0
0
0
0
0
0
0
0
0
0
0
0
0
0
0
0
0
0
0
0
0
0
0
0
0
0
0
0
0
0
0
0
0
0
0
0
0
0
0
0
0
0
0
0
0
0
0
0
0
0
0
0
0
0
0
0
0
0
0
0
0
0
0
0
0
0
0
0
0
0
0
0
0
0
0
0
0
0
0
0
0
0
0
0
0
0
0
0
0
0
0
0
0
0
0
0
0
0
0
0
0
0
0
0
0
0
0
0
0
0
0
0
0
0
0
0
0
0
0
0
0
0
0
0
0
0
0
0
0
0
0
0
0
0
0
0
0
0
0
0
0
0
0
0
0
0
0
0
0
0
0
0
0
0
0
0
0
0
0
0
0
0
0
0
0
0
0
0
0
0
0
0
0
0
0
0
0
0
0
0
0
0
0
0
0
0
0
0
0
0
0
0
0
0
0
0
0
0
0
0
0
0
0
0
0
0
0
0
0
0
0
0
0
7.4687204917001e-219
3.7343602304586e-219
8.9432437987742e-218
4.4716218993871e-218
5.5422198988209e-217
2.7711099493526e-217
2.3625012029238e-216
1.18125060265e-216
4.2954730735266e-217
1.9329424006753e-216
3.2860316633601e-197
0
6.802351880612e-197
3.3969378768916e-197
1.2367912518409e-197
5.5655606188862e-197
2.2487113694964e-198
1.0119201149645e-197
4.0885662999723e-199
1.8398547334469e-198
4.2114928459041e-196
0
3.888462805915e-195
-1.451698307441e-220
7.0699323846364e-196
3.1814695665021e-195
9.7833025280108e-196
4.8916512640054e-196
4.0091748965186e-195
-1.4003055207872e-227
1.6378255491655e-194
0
6.1728064588936e-194
0
1.122328447417e-194
5.0504780117433e-194
2.0405971775082e-195
9.1826872967214e-195
6.9187596244496e-195
0
2.1436442897738e-194
0
3.8975350723283e-195
1.753890782541e-194
1.1967624492287e-194
0
2.1759317258703e-195
9.7916927664164e-195
2.4094088265824e-195
1.2047044132912e-195
4.380743321059e-196
1.9713344944762e-195
6.1898926154488e-196
1.8328558251845e-196
1.6280133395722e-195
0
2.9600242537676e-196
1.3320109141954e-195
7.5827933665242e-196
0
1.3786897030044e-196
6.2041036635198e-196
1.9366713431135e-196
7.8998553177109e-197
5.1836848129672e-196
0
9.4248814781222e-197
4.241196665155e-196
1.9236832923184e-196
0
3.4976059860334e-197
1.573922693715e-196
6.3592836109698e-198
2.8616776249364e-197
1.122189494524e-197
0
2.0403445354983e-198
9.0989722231413e-198
3.3261485508149e-198
0
6.0475428196676e-199
2.7213942688478e-198
8.5753128466069e-199
4.4761260479273e-200
1.5591477903196e-199
7.0161650561548e-199
1.3141552703536e-199
6.5707763517678e-200
2.3893732189682e-200
1.0752179484488e-199
2.0183179539098e-200
1.0091589769549e-200
1.6816982656139e-200
8.4084913280696e-201
3.0576332287592e-201
1.3759349244652e-200
2.4945780196961e-201
1.2472890098481e-201
3.3198818393659e-201
0
2.5430465769067e-201
1.2715232884533e-201
3.1130326770863e-201
0
5.6601138852679e-202
2.5470204036181e-201
6.7719451189091e-202
0
1.2312638047665e-202
5.5406812384195e-202
9.0520378811661e-203
4.526018940583e-203
1.6458496179227e-203
7.4061928226027e-203
1.9282268377782e-203
0
2.0348735228266e-203
0
3.7657958843311e-204
1.658709235801e-203
3.7188614821963e-204
0
6.8502698499406e-205
3.0325829383174e-204
7.0423995861353e-205
0
4.9095600673491e-205
2.4547800336746e-205
5.5736563454769e-205
0
6.2480271513523e-205
0
1.6967608177246e-205
4.7148695588863e-205
2.0346833864716e-205
0
1.4825188423667e-205
7.4125942118337e-206
1.675224992679e-205
0
1.1392462961891e-205
6.6121242164402e-206
8.0946209553239e-206
4.0473104776619e-206
8.7989643218203e-206
0
6.3244956338696e-206
3.1622478169348e-206
6.5027082743459e-206
0
4.3167968888104e-206
2.1595998218198e-206
4.1489088373078e-206
0
3.8565926031612e-206
0
2.4276796096701e-206
1.2138398048351e-206
2.1278124105276e-206
0
1.5627528432399e-206
0
0
0
0
0
0
0
0
0
0
0
0
0
0
0
0
0
0
0
0
0
0
0
0
0
0
0
0
0
0
0
0
0
0
0
0
0
0
1.0246734234447e-163
5.1233671172236e-164
5.6377544965383e-160
2.8188772482691e-160
5.1252301606183e-160
5.1252457144287e-161
2.1897783853565e-149
9.8355553418326e-150
1.0828338048655e-133
0
4.9763326591362e-133
0
4.9763326591362e-133
0
3.4741815012942e-130
0
1.5828525687703e-131
3.3158588755072e-130
1.5738965639093e-131
0
2.2351267258986e-131
0
3.7370609600117e-131
1.4494564758582e-131
9.7641645945897e-131
4.881960153464e-131
3.542846889454e-132
9.874283464295e-131
1.9498871896774e-132
1.7543651633891e-132
3.6613398774959e-132
1.3581400676576e-132
2.3907864247152e-131
0
2.3494237544291e-129
0
7.3087173435245e-131
2.2763365809939e-129
1.052175880424e-130
0
1.1853270275728e-127
0
1.1853270275728e-127
0
2.0698159945525e-126
0
6.037110015013e-126
0
1.3669326095049e-127
5.4621209347431e-126
1.0941050767712e-127
9.7829493219557e-128
6.1985622672428e-128
1.7882812459728e-128
3.598995657176e-127
1.3155614271536e-127
1.7254873038349e-126
5.2679731150146e-127
1.3928548408066e-125
4.5365736035501e-126
2.9313531088191e-125
1.4656765126452e-125
2.7614991986046e-125
2.7614991399642e-126
8.8220323164691e-125
0
4.2532580651354e-125
4.328792305173e-125
2.7324518098172e-125
1.657198483913e-125
2.1658915304995e-125
1.08293848392e-125
3.0505276774469e-126
1.7613784922362e-125
4.6445043073801e-126
0
3.9006914351661e-127
1.6378558526921e-127
2.1226035012685e-127
0
1.2280164815879e-128
2.7773101575751e-127
9.7204999624946e-129
5.7400073341645e-129
2.1607840855005e-128
0
6.917822170819e-130
2.0916058637923e-128
7.5969346299518e-130
0
1.3812608418094e-130
6.2156737881424e-130
2.5113833487444e-131
1.130122506935e-130
4.2673655415458e-131
0
1.3280690966923e-132
4.1345586318766e-131
1.3283693003648e-132
0
4.0422644256227e-134
1.2879466561086e-132
4.1233123202907e-134
0
4.1233123202907e-134
0
5.2409053032942e-134
0
5.2409406847272e-134
0
9.5289830631403e-135
4.2880423784132e-134
8.662711875582e-136
8.6627118755821e-135
4.3665872269997e-136
0
4.3662453661276e-136
0
1.6378006892614e-137
4.2024652972014e-136
1.6048245623399e-137
0
2.6159427328017e-138
1.3432302890597e-137
2.1865590920323e-138
0
6.2574879681415e-140
9.9486432827891e-139
6.2567783200336e-140
0
5.0729520658246e-140
0
3.9732438625804e-140
0
3.0884506829101e-140
0
8.9059106844712e-142
2.9993915760654e-140
8.9045050376061e-142
0
6.7550087223755e-142
0
1.0327573155296e-142
5.7222514068459e-142
7.912084297063e-143
0
2.6849228461075e-144
7.6435920124522e-143
2.7981763011632e-144
0
1.9808652169116e-144
0
1.0368449793862e-144
0
6.9168778150598e-145
0
2.0351541501789e-146
6.7133624000419e-145
1.8766626708729e-146
0
0
0
0
0
0
0
0
0
0
0
0
0
0
0
0
0
0
0
0
0
0
0
0
0
0
0
0
0
0
0
0
0
0
0
0
-1.0629314387018e-101
-5.3146571935091e-102
-3.307218506646e-100
-1.653609253323e-100
-5.7211806326942e-99
-2.8605903163471e-99
-7.0026141172166e-98
-3.5013070586083e-98
-6.5598790236005e-97
-3.2799395118003e-97
-4.9384971174667e-96
-2.4692485587333e-96
3.733655187683e-87
1.9202802726336e-87
2.7360216457157e-86
1.5764395117746e-86
9.1391675058164e-85
4.6907118534027e-85
5.2783585163813e-84
5.3637550082257e-84
2.619071149022e-84
4.9004748251735e-84
1.359801608358e-85
1.8543496313423e-84
1.2943257735731e-85
0
2.3532369352505e-86
1.0590020800482e-85
4.2787612740239e-87
1.9253608078481e-86
7.7795688332211e-88
3.5008043907018e-87
1.4144670696143e-88
6.3651017636068e-88
7.5046176473214e-89
6.6400530488214e-89
2.1449733517926e-79
1.1334971228561e-79
1.1538195056673e-77
4.5339884914246e-78
5.3583327453425e-77
3.8517311755721e-77
4.2936938143394e-76
2.4526718696468e-76
3.9107083216042e-75
2.2191498719171e-75
2.0203440222166e-74
1.4050009898912e-74
2.7682812243563e-74
2.8254779938332e-74
7.5803478246083e-75
1.7686873200833e-74
1.559801904129e-75
6.020546142361e-75
2.8483103202951e-76
1.2749708722785e-75
5.1817486386072e-77
2.3301387214502e-76
5.8222294555985e-78
4.5995258800159e-77
1.5996721592449e-78
4.2532904673741e-78
2.9084946767956e-79
1.3088226915653e-78
2.6440861782906e-80
2.6440860589665e-79
4.8074294643051e-81
2.1633432318601e-80
6.1375553964439e-73
0
1.1313319100233e-73
5.0926679280404e-73
2.0574983269798e-74
9.2558195250007e-74
2.4000297501641e-75
1.8174953519634e-74
3.4008598124154e-76
2.0599437689225e-75
3.003889196974e-70
0
3.7412474217913e-71
2.6573961870406e-70
2.2785146232885e-70
1.8546030753437e-70
3.706912931781e-71
2.1595258877117e-70
4.2834318146526e-72
3.2785697503157e-71
9.9466540790923e-70
3.7092061506874e-70
9.8559663046662e-70
2.271888767296e-69
7.0497511664772e-69
2.0400633828781e-69
1.2851651014548e-68
1.1962189835967e-68
2.7198163894449e-68
2.1385891712557e-68
7.0769242490911e-68
5.0781350456755e-68
1.43372402141e-67
1.1424354944117e-67
3.5172194576058e-67
2.5380243086079e-67
7.0951162251231e-67
5.8007207047345e-67
1.3614914275924e-66
1.1049855524672e-66
3.0843009141127e-66
2.3068016701894e-66
5.5892275286598e-66
4.6090827453712e-66
1.13256707289e-65
8.6503787592488e-66
1.9257254115732e-65
1.6641599113474e-65
2.9608944643654e-65
2.5925641281094e-65
4.7065448233619e-65
3.958979456367e-65
5.7962782987452e-65
5.7137017864944e-65
6.0689321832362e-65
6.2990727533587e-65
6.0429056400945e-65
6.4296171297539e-65
5.9409016459563e-65
6.3692667438976e-65
5.8250635200348e-65
6.1269761955251e-65
5.8382540954329e-65
5.8382467813048e-65
5.5306080222278e-65
5.6687849335767e-65
4.4840643871887e-65
5.1856969277864e-65
3.3392285457274e-65
3.9172927130895e-65
1.8529862368316e-65
2.679922415871e-65
6.6831028931879e-66
1.2737107428062e-65
1.6916750437766e-66
3.7903656455923e-66
3.1804683111334e-67
9.2853130631924e-67
5.6346706146906e-68
2.3807124688485e-67
9.1350489087891e-69
4.5783037106039e-68
2.3371539686965e-69
6.0643938008652e-69
5.9562726305009e-70
1.4898821211044e-69
1.5001501491705e-70
3.7359607245137e-70
3.752628251031e-71
9.3698822358786e-71
9.3871924623141e-72
2.3407923441513e-71
2.2929985303722e-72
5.8934146926169e-72
6.7987341421955e-73
1.3605415623611e-72
5.5560721309851e-73
0
0
0
0
0
0
0
0
0
0
0
0
0
0
0
0
0
0
4.5103101586019e-91
2.2750580028239e-91
4.1374094354337e-89
2.1256374704739e-89
2.1456227935482e-87
1.0961809344271e-87
8.6692652389147e-86
4.4819944792673e-86
2.2299519353998e-84
1.1758951868441e-84
4.597356003459e-83
2.4347947398184e-83
8.8243556529257e-82
4.6912780847376e-82
1.281251707015e-80
6.9314951476741e-81
2.3491386967219e-79
1.2460877968898e-79
3.7163716373313e-78
2.0146561957431e-78
4.6507493907077e-77
2.5185226548794e-77
5.4517482726924e-76
2.9950232549068e-76
5.5584831689876e-75
3.0841485143953e-75
6.4017659617722e-74
3.4865248797143e-74
5.9171682853764e-73
3.3180574124764e-73
4.7335107903375e-72
2.6884047265267e-72
3.3928525423076e-71
1.9350854231568e-71
2.718338873686e-70
1.5553128817885e-70
2.0696582282048e-69
1.1591269220898e-69
2.420537113859e-68
1.3784916920953e-68
1.2807402388994e-67
7.7591956164693e-68
5.5085995248752e-67
3.2066087172693e-67
4.0201882235315e-66
2.5860585282593e-66
1.0576350864483e-65
6.9317644544046e-66
5.5315244218634e-65
3.6890280692277e-65
1.200618739385e-64
8.6029843776584e-65
3.1806892044834e-64
1.9598851827248e-64
2.4601443085438e-63
1.592216799609e-63
4.9002458086416e-63
4.6186441515376e-63
2.6971054661014e-62
1.507136512607e-62
8.9658604902992e-62
7.6231937153799e-62
4.3811928175058e-61
2.24028550003e-61
2.947012136427e-60
1.8046744305797e-60
2.3453142970779e-59
1.3591065366849e-59
7.3388664297537e-59
5.3169442534046e-59
2.4049891429079e-58
1.7125738044674e-58
3.2573906950952e-58
2.7241871680365e-58
3.0002605959123e-58
3.8871442631632e-58
2.0267308366722e-58
7.5668504942303e-59
3.2302396368597e-58
1.5293682346872e-58
4.7673415154751e-57
3.3646101163117e-57
7.5020614433924e-57
2.3974175032578e-57
3.2478983003756e-56
3.4257848456992e-56
3.2478983003756e-56
0
3.1906476071369e-55
1.4355669829597e-55
1.1747380750309e-54
1.0309981059438e-54
2.3075492462117e-55
9.4398315040971e-55
3.6975823789939e-54
1.8792876867836e-54
4.5647511324052e-55
3.2411072657534e-54
2.6636543582953e-54
1.2528584578557e-54
4.3014742848279e-55
2.2335069298125e-54
4.3014742848279e-55
0
3.1303036836669e-54
1.6704779438076e-54
6.0571620418662e-55
2.5245874794803e-54
4.4223654776442e-54
0
8.1814783851737e-55
3.6042176391269e-54
1.4970093911596e-55
6.6844689940147e-55
4.0460383481183e-55
0
7.3637196554763e-56
3.3096663825739e-55
1.4090419189217e-55
0
2.3747795393099e-56
1.1715639650067e-55
2.3747795395791e-56
0
2.5370833775007e-55
0
2.5370833776236e-55
0
2.8213891375979e-55
0
4.6961719158677e-56
2.3517719464411e-55
8.5468627991479e-57
3.8414856420485e-56
1.3394809713907e-56
0
1.3395185552467e-56
0
4.4298930320544e-58
1.2952196376061e-56
4.4300167921177e-58
0
2.2274313878478e-59
4.2072749617129e-58
2.2215155389703e-59
0
2.387618835667e-59
0
2.5832747619205e-59
0
2.5832843616658e-59
0
3.8247282565084e-59
0
3.8324860433414e-59
0
7.728180241141e-61
3.7552056809821e-59
8.5032119378173e-61
0
9.0534787786095e-61
0
9.8102213863112e-62
8.0724585350628e-61
9.8102250341741e-62
0
1.0156556529125e-61
0
6.9513945249227e-62
4.9784122222889e-62
4.8149780481807e-62
3.7338091667167e-62
2.2543567770019e-62
2.4892061111444e-62
1.4060857505239e-62
6.2230152778611e-63
6.1385164009778e-63
6.2230152778612e-63
3.2603455549342e-63
1.7502230468984e-63
2.6253345703477e-63
0
0
0
0
0
0
0
0
0
0
0
0
0
0
7.0586385606168e-82
3.5318932795785e-82
1.2096375373274e-79
6.081514921982e-80
1.0206645150223e-77
5.1589968451065e-78
5.6654165135902e-76
2.8799595709305e-76
2.3309622350016e-74
1.1919389903828e-74
7.5940689126566e-73
3.9067735665167e-73
2.0429690196329e-71
1.0574929770009e-71
4.669674891021e-70
2.4323351423653e-70
9.2526502217798e-69
4.8504938276152e-69
1.6125144431521e-67
8.5090939583641e-68
2.4991273510934e-66
1.3277315663738e-66
3.4761172404326e-65
1.8596296485761e-65
4.3762855506853e-64
2.357630345106e-64
5.0300582052896e-63
2.7286227394725e-63
5.3272471306338e-62
2.90906920913e-62
5.2499886943387e-61
2.8846313579393e-61
4.8623598593702e-60
2.6866278517769e-60
4.2708513329898e-59
2.3716527805418e-59
3.583175736122e-58
1.998892273635e-58
2.8842819339305e-57
1.6160595737815e-57
2.231158745527e-56
1.2556830421751e-56
1.6576152778715e-55
9.373326300677e-56
1.1805108144576e-54
6.7101863354965e-55
8.0404785345782e-54
4.5964559481721e-54
5.2263361021964e-53
3.0063401542839e-53
3.2367544021878e-52
1.8743836775017e-52
1.9079172506879e-51
1.1127652768923e-51
1.0698185181633e-50
6.2865891116452e-51
5.7056114855885e-50
3.3792050826873e-50
2.8947143596472e-49
1.7284482761649e-49
1.3975845253629e-48
8.4156230219183e-49
6.4243829894386e-48
3.9021863937427e-48
2.8132501411754e-47
1.7240852641171e-47
1.1742614719309e-46
7.2625847637684e-47
4.6747498119285e-46
2.9185125537672e-46
1.7759897894483e-45
1.1194924000415e-45
6.4424565753415e-45
4.1012035373939e-45
2.2326364022989e-44
1.4356888083323e-44
7.3952209265593e-44
4.8048691835225e-44
2.3423206740311e-43
1.5380594722045e-43
7.097141827939e-43
4.7110506661777e-43
2.0579164352316e-42
1.3812862838254e-42
5.7125603831177e-42
3.8781588918523e-42
1.5185615427099e-41
1.0430041986427e-41
3.8668908481292e-41
2.687801048377e-41
9.434960911005e-41
6.6386826355669e-41
2.206380197008e-40
1.5720124580132e-40
4.9463944451265e-40
3.5696676177249e-40
1.0633157082647e-39
7.7749466201603e-40
2.1922175573165e-39
1.624624278354e-39
4.3352361513101e-39
3.2573383751805e-39
8.2238107234248e-39
6.2670781454057e-39
1.4963502819031e-38
1.1570476178309e-38
2.6108328712002e-38
2.0494746608458e-38
4.3659645261341e-38
3.4814495689136e-38
6.9912083661951e-38
5.667497714806e-38
1.0705427254454e-37
8.8317651484317e-38
1.564379815721e-37
1.3152148898591e-37
2.1742960835573e-37
1.8668831949377e-37
2.85547053122e-37
2.5144050840747e-37
3.4901059501278e-37
3.1815814225862e-37
3.8740373142041e-37
3.7052763350986e-37
3.9503333595217e-37
3.9197582779715e-37
3.9521639022579e-37
3.9353117774966e-37
3.855867417395e-37
3.8806294269502e-37
3.619043933355e-37
3.7145831595969e-37
3.1943879717421e-37
3.3815183606882e-37
2.6096179543857e-37
2.8779270313042e-37
1.9386365287704e-37
2.251997554559e-37
1.2845266084542e-37
1.5921482584119e-37
7.4304788110436e-38
9.9771068265316e-38
3.6762035357864e-38
5.4331933395335e-38
1.5382067991548e-38
2.5317872174315e-38
5.5029397000807e-39
1.0077732432513e-38
1.7511868844583e-39
3.4997774853887e-39
5.2364825183133e-40
1.10597115868e-39
1.5378470195605e-40
3.3305362253829e-40
4.5289291297102e-41
9.8737777432046e-41
1.3422457647883e-41
2.9247836900739e-41
3.9920464316254e-42
8.6856153023819e-42
1.1881517047468e-42
2.5833576610604e-42
3.5352004099014e-43
7.6860081049396e-43
1.051838944066e-43
2.2866610767805e-43
3.131899854867e-44
6.8054655550059e-44
9.3382794366569e-45
2.0273837616646e-44
2.7889505350019e-45
6.0482883677393e-45
8.3417686754482e-46
1.8071837361606e-45
2.4977938470219e-46
5.4064611114848e-46
7.4759409561374e-47
1.6193509618556e-46
2.2481274499651e-47
4.8358274733591e-47
6.4987843512928e-48
1.4747546452201e-47
2.4407040752904e-48
3.7814670994811e-48
2.2203181683458e-48
0
0
0
0
0
0
0
0
0
0
0
0
6.2543174909739e-82
3.123446621055e-82
1.6184002020689e-79
8.0814132209692e-80
1.849924691945e-77
9.2599843251446e-78
1.3106258978999e-75
6.5850898236861e-76
6.6224129960786e-74
3.3425016582762e-74
2.5776358621096e-72
1.3075968634481e-72
8.1159674632059e-71
4.1394437381783e-71
2.1378347479757e-69
1.0965746447399e-69
4.8252317762031e-68
2.4896666305755e-68
9.4967463757628e-67
4.9300217250509e-67
1.6516505297007e-65
8.6284695703584e-66
2.5653100026231e-64
1.348918172354e-64
3.5892105307169e-63
1.9000276898906e-63
4.5567382295313e-62
2.4288737379506e-62
5.2837656110118e-61
2.8361488106768e-61
5.6329211998205e-60
3.0446573030817e-60
5.5617661219855e-59
3.0264526989793e-59
5.1282656361101e-58
2.8081026029882e-58
4.4543976329795e-57
2.4529882307384e-57
3.6746324088801e-56
2.033871882373e-56
2.8979920099174e-55
1.6114201757727e-55
2.1943651106029e-54
1.2255251036673e-54
1.5984874240382e-53
8.9667236731004e-54
1.12029723681e-52
6.3135103072461e-53
7.5452199528336e-52
4.2735435279566e-52
4.8746750655476e-51
2.7761447103657e-51
3.0152016812432e-50
1.7274655969139e-50
1.7824746129979e-49
1.0278504984371e-49
1.0056675980833e-48
5.8396051337651e-49
5.4096529624102e-48
3.16458725845e-48
2.7726394439138e-47
1.6347126693517e-47
1.3536137905852e-46
8.0465607535858e-47
6.2944306250798e-46
3.7739231507823e-46
2.7883499202305e-45
1.686734252367e-45
1.1770542450402e-44
7.1860537986925e-45
4.7366666603435e-44
2.9193441742149e-44
1.8178941075035e-43
1.1314030992622e-43
6.6571452761118e-43
4.1849128990603e-43
2.3272324933497e-42
1.4780794785904e-42
7.7701972726412e-42
4.9872061945958e-42
2.4789648042089e-41
1.6083063087941e-41
7.5606052557319e-41
4.9594392773207e-41
2.2054064724963e-40
1.4630046261274e-40
6.1554596569373e-40
4.1304884981511e-40
1.6446018196372e-39
1.1165768160372e-39
4.2079472905464e-39
2.8912769032757e-39
1.031472037565e-38
7.1742553175426e-39
2.4231027184171e-38
1.7065000314418e-38
5.4567830912354e-38
3.8923470956916e-38
1.1782630259808e-37
8.5152296701477e-38
2.4397236744107e-37
1.7870192102324e-37
4.8444374149827e-37
3.5978232385205e-37
9.2240130798681e-37
6.948915357505e-37
1.6838161473744e-36
1.2873785412423e-36
2.9460227161829e-36
2.2871861598312e-36
4.937822975668e-36
3.8951978684234e-36
7.9225795445231e-36
6.3550568191281e-36
1.2154044808345e-35
9.9231253373114e-36
1.7796052858059e-35
1.4807439110311e-35
2.4797677689697e-35
2.1068756715865e-35
3.2692577026697e-35
2.8469395592846e-35
4.0227419898096e-35
3.6211939892967e-35
4.5112783558657e-35
4.2541075922114e-35
4.6305217050334e-35
4.5431158832523e-35
4.6343330577601e-35
4.5746594629325e-35
4.5411399050979e-35
4.5227534452836e-35
4.2914067696213e-35
4.352293584122e-35
3.8249828823462e-35
3.9946592585337e-35
3.1653034668957e-35
3.4378693569716e-35
2.3907732342976e-35
2.7292250780697e-35
1.6183220476069e-35
1.9654962587071e-35
9.6208111923408e-36
1.2609661177234e-35
4.9247836950074e-36
7.0722545031924e-36
2.1440843293257e-36
3.4143395137815e-36
7.9917623260142e-37
1.4132095448814e-36
2.6363311289018e-37
5.0975868800743e-37
8.0975397731746e-38
1.6630912238588e-37
2.4229854494173e-38
5.130162631443e-38
7.2389752985987e-39
1.5485090989355e-38
2.1739029014243e-39
4.6556044872794e-39
6.5533480334158e-40
1.4019136270653e-39
1.9783248672688e-40
4.228636121518e-40
5.9741090414198e-41
1.2765022252567e-40
1.8049584771226e-41
3.8552638801104e-41
5.4598209221531e-42
1.1653362024355e-41
1.6544697318713e-42
3.5274399228314e-42
5.0232321049847e-43
1.0696615815679e-42
1.5276130135178e-43
3.2495017695547e-43
4.6505082107691e-44
9.8846670411335e-44
1.4146870353667e-44
3.0100959525134e-44
4.3225527517045e-45
9.1343510889306e-45
1.2672545367565e-45
2.8322211479838e-45
4.8589020750651e-46
7.3185651611665e-46
4.4330102920801e-46
0
0
0
0
0
0
0
0
0
0
2.9270694269162e-82
1.4572380681436e-82
1.0030686014004e-79
4.9842422991251e-80
1.4900341124975e-77
7.4036846810805e-78
1.3236396980523e-75
6.5877389933731e-76
8.1468221060929e-74
4.0662068653772e-74
3.7763580113594e-72
1.8918354613851e-72
1.3904853417256e-70
6.9961485623783e-71
4.2208001331215e-69
2.1338925302151e-69
1.0851960713476e-67
5.5147935399355e-68
2.4111145530176e-66
1.2320144891924e-66
4.7003368274953e-65
2.4155910778428e-65
8.1368703887002e-64
4.2068666370007e-64
1.2629933597462e-62
6.5707343831675e-63
1.7717457230213e-61
9.2773679619709e-62
2.2612700928535e-60
1.1920059391352e-60
2.6410947590445e-59
1.4018201533191e-59
2.8379503707688e-58
1.5168761690356e-58
2.8202258865224e-57
1.5179932728059e-57
2.6070136581857e-56
1.4128146569914e-56
2.2575660724785e-55
1.2312301681914e-55
1.8465178845604e-54
1.0127809516067e-54
1.4384625170794e-53
7.9289299970407e-54
1.0744248554558e-52
5.9487575506514e-53
7.7235351460691e-52
4.2947741721873e-52
5.3475373022481e-51
2.9871166383643e-51
3.5616579823269e-50
1.9995512540185e-50
2.2773828828113e-49
1.2857295424408e-49
1.3953120718452e-48
7.9262443229971e-49
8.1795476101857e-48
4.6777243856607e-48
4.5835186029535e-47
2.6400622873568e-47
2.4537718522209e-46
1.4240913454558e-46
1.2545562175606e-45
7.3391380589936e-46
6.1245797619803e-45
3.6127229715709e-45
2.8544920735975e-44
1.6983845936808e-44
1.2699848330778e-43
7.6242243311431e-44
5.393212398227e-43
3.2679308504686e-43
2.1859988025558e-42
1.3373335235634e-42
8.4565514851404e-42
5.224951825826e-42
3.122338819386e-41
1.9489534155476e-41
1.1003437119277e-40
6.9408692415953e-41
3.7014655072334e-40
2.3602213444318e-40
1.1886953809869e-39
7.664245652812e-40
3.6449854911783e-39
2.377037149532e-39
1.0674640471379e-38
7.0428623960799e-39
2.986621723325e-38
1.9940513615222e-38
7.9864775408464e-38
5.397121657886e-38
2.0422406782679e-37
1.3971320528576e-37
4.9971367892228e-37
3.4611983359172e-37
1.1709690220163e-36
8.2120675511351e-37
2.6301613846323e-36
1.8676511238297e-36
5.6685345036052e-36
4.0754854307067e-36
1.1733953635977e-35
8.5415649031167e-36
2.3349128377339e-35
1.7209295452078e-35
4.4686576067864e-35
3.335344894742e-35
8.2258851968611e-35
6.2198240465523e-35
1.4556504412378e-34
1.1157219525648e-34
2.4735529345734e-34
1.923592834936e-34
4.0297466720264e-34
3.1832068286226e-34
6.281140542324e-34
5.0469189995664e-34
9.3438455623185e-34
7.6494477641621e-34
1.322326945862e-33
1.105307251172e-33
1.7706476683174e-33
1.5164912529876e-33
2.2170987414874e-33
1.960243524374e-33
2.5378157532801e-33
2.3471758073559e-33
2.6399975117576e-33
2.5532279670745e-33
2.6452157580584e-33
2.5877200357067e-33
2.6070246455603e-33
2.5670237622706e-33
2.4845972316189e-33
2.4869024247712e-33
2.2406987891028e-33
2.30558663236e-33
1.8817438835563e-33
2.0102856804605e-33
1.4469846919769e-33
1.6216530936415e-33
1.0012635444202e-33
1.1908504266248e-33
6.1163055145884e-34
7.8241777292392e-34
3.2361739485366e-34
4.5175499953272e-34
1.4639402316921e-34
2.257217246669e-34
5.6797019450803e-35
9.7040324357856e-35
1.9425974707148e-35
3.6340391193042e-35
6.1358476875952e-36
1.2246227508188e-35
1.8729548876301e-36
3.8734945733024e-36
5.6810974917614e-37
1.1915192385111e-36
1.7292693464973e-37
3.6380056543818e-37
5.2842998259305e-38
1.1111278816156e-37
1.6181116577079e-38
3.3993320343291e-38
4.9599883625173e-39
1.0412948662257e-38
1.5221223669226e-39
3.1931995520783e-39
4.6793110848278e-40
9.8061996943907e-40
1.4417663472833e-40
3.0173320758667e-40
4.4525348426161e-41
9.3050919949211e-41
1.3775092728751e-41
2.8756263149579e-41
4.2658052920048e-42
8.8992505742568e-42
1.3195034773891e-42
2.7566724978238e-42
4.098039715185e-43
8.5042003334595e-43
1.2186861237482e-43
2.6819782482264e-43
4.7740423311313e-44
6.9812173124628e-44
4.3678216109459e-44
0
0
0
0
0
0
0
0
0
0
2.543759492761e-80
1.2523752902287e-80
6.3021847584287e-78
3.1038976681687e-78
7.544929232263e-76
3.7198605578051e-76
5.8026326344075e-74
2.8662934548366e-74
3.2341578532245e-72
1.6018284672013e-72
1.3981738844582e-70
6.9480619125483e-71
4.8987719678665e-69
2.4438703818764e-69
1.4351009442653e-67
7.1905148114771e-68
3.5973678256881e-66
1.8109928990394e-66
7.8517058212042e-65
3.9728135450128e-65
1.5125403101913e-63
7.6944589961614e-64
2.5997714516521e-62
1.3300510225369e-62
4.022293627485e-61
2.0700850064496e-61
5.6422228499149e-60
2.9218559281891e-60
7.2201809007341e-59
3.7631790780904e-59
8.4744403278265e-58
4.4464432724636e-58
9.1656599202317e-57
4.8422728226425e-57
9.1730374657961e-56
4.8803509770836e-56
8.5306099547016e-55
4.5707477442805e-55
7.4081180041092e-54
3.996715246283e-54
6.0457986962539e-53
3.282605720624e-53
4.6738479620465e-52
2.5518887507522e-52
3.4527912868265e-51
1.8940451402958e-51
2.4563662203495e-50
1.3528808035551e-50
1.691098481342e-49
9.350140427043e-50
1.1283809894761e-48
6.2656871707386e-49
7.2897536072276e-48
4.0685428326406e-48
4.5498047511615e-47
2.5546911781157e-47
2.7369557488059e-46
1.547431039789e-46
1.5834070550235e-45
9.020841291266e-46
8.7925192596219e-45
5.050416218962e-45
4.6778475573149e-44
2.7103165286985e-44
2.3805382948553e-43
1.3918103336913e-43
1.1570949117215e-42
6.829022455703e-43
5.3653178167102e-42
3.1975266482749e-42
2.3709779054148e-41
1.4273003145182e-41
9.97784438464e-41
6.0692125517683e-41
3.9964908370311e-40
2.4570952155366e-40
1.5229137206323e-39
9.4669280845957e-40
5.5194349757826e-39
3.4703023626458e-39
1.9021063588049e-38
1.2100455184027e-38
6.2317291844981e-38
4.0126706005612e-38
1.9405828065271e-37
1.2652854190974e-37
5.742735782602e-37
3.7930586509374e-37
1.6146502881497e-36
1.0808234810169e-36
4.3124667852345e-36
2.9268662949517e-36
1.0939538307185e-35
7.5312702184681e-36
2.6356815070166e-35
1.8413145106703e-35
6.0326564553967e-35
4.2780372411673e-35
1.3125663141273e-34
9.4498603328432e-35
2.7180792884812e-34
1.986542674584e-34
5.3678076342983e-34
3.980968399845e-34
1.013833260951e-33
7.6239472860745e-34
1.8379755367707e-33
1.3999049917043e-33
3.2109622332068e-33
2.4739667147585e-33
5.4251619388841e-33
4.223608004401e-33
8.8858733123925e-33
6.9857351314766e-33
1.4114891174585e-32
1.1207734786811e-32
2.1704328944873e-32
1.742751267454e-32
3.2183094520019e-32
2.6188563860952e-32
4.5765798070061e-32
3.7858272477064e-32
6.1956065264295e-32
5.2327001475703e-32
7.8888393629468e-32
6.8535758920709e-32
9.2407240922269e-32
8.3686298290596e-32
9.797932336228e-32
9.311486433374e-32
9.8434947756215e-32
9.5402582139021e-32
9.7569351602693e-32
9.4943835020062e-32
9.382088786815e-32
9.2626737497198e-32
8.5665823043443e-32
8.678868314303e-32
7.3071592471496e-32
7.6727441192722e-32
5.7245697046994e-32
6.2943044963114e-32
4.0505254799943e-32
4.7156597880795e-32
2.5417212033306e-32
3.1732859315136e-32
1.3888568838102e-32
1.8852991505901e-32
6.5200629062308e-33
9.7401181643021e-33
2.6305748319277e-33
4.3448782167667e-33
9.3287729652069e-34
1.6884051800507e-33
3.0330388510418e-34
5.8790436239707e-34
9.4559845612268e-35
1.9085210406816e-34
2.9145111941992e-35
5.9885642351834e-35
8.9962404881688e-36
1.8581218471439e-35
2.787290460668e-36
5.7583444071043e-36
8.6588759702426e-37
1.7872281471274e-36
2.6948180548421e-37
5.5566574203065e-37
8.402765565441e-38
1.7306538376499e-37
2.6265031070468e-38
5.4017407443783e-38
8.2332187931715e-39
1.6903996575793e-38
2.5878755577468e-39
5.3046264631326e-39
8.1501593538691e-40
1.6687253928688e-39
2.5689338658654e-40
5.2572198800911e-40
8.0841663157426e-41
1.6574982964092e-40
2.5530934333072e-41
5.2006533916449e-41
7.703033429284e-42
1.6689587800539e-41
3.0858312761228e-42
4.3739577196671e-42
2.8308474439278e-42
0
0
0
0
0
0
0
0
7.0936400573552e-91
3.515098883247e-91
1.0747170080139e-78
5.2287047628596e-79
2.3336879717428e-76
1.1373710485886e-76
2.5056095798517e-74
1.2236226212815e-74
1.7671607383474e-72
8.6509456147611e-73
9.2005234995915e-71
4.5169522341421e-71
3.7709272249991e-69
1.8574465848397e-69
1.2674694491806e-67
6.2664044987957e-68
3.5956305714516e-66
1.7849633639324e-66
8.7937733962515e-65
4.3848117546101e-65
1.8840181714449e-63
9.4388880745442e-64
3.5807612339867e-62
1.8030323693771e-62
6.0985241575701e-61
3.0872619580122e-61
9.3836510811195e-60
4.7771193522348e-60
1.3131916361536e-58
6.7249630787028e-59
1.6810397024413e-57
8.6620963406147e-58
1.978206122088e-56
1.0259067921481e-56
2.1491850431573e-55
1.1220280538253e-55
2.1638650902328e-54
1.1374996435951e-54
2.0258692605661e-53
1.0725269144028e-53
1.7694522644992e-52
9.4351177681044e-53
1.4475838202116e-51
7.7728728180645e-52
1.1158797747859e-50
6.0298365300111e-51
8.1780137271529e-50
4.4421215605852e-50
5.7645860084013e-49
3.1431498169239e-49
3.9553298265972e-48
2.1625534236095e-48
2.6663020984028e-47
1.4614015911306e-47
1.7736115577024e-46
9.7517918959712e-47
1.1634275553123e-45
6.4249995176231e-46
7.4914242017193e-45
4.1610508187994e-45
4.7030779438012e-44
2.6306109697598e-44
2.8574815008257e-43
1.611110600435e-43
1.6688512317525e-42
9.4922735725889e-43
9.3166317818592e-42
5.3493274541092e-42
4.9506863718676e-41
2.8709437048386e-41
2.4964341907585e-40
1.4628519775153e-40
1.192143900185e-39
7.0617805553939e-40
5.3841205833719e-39
3.2253769273372e-39
2.2978895215064e-38
1.3926653309113e-38
9.2634926072127e-38
5.6822209255764e-38
3.5265335404793e-37
2.1902684423047e-37
1.2676389542156e-36
7.9751892514501e-37
4.3021441574063e-36
2.7430206968616e-36
1.3784316476689e-35