/*--------------------------------*- C++ -*----------------------------------*\
  =========                 |
  \\      /  F ield         | OpenFOAM: The Open Source CFD Toolbox
   \\    /   O peration     | Website:  https://openfoam.org
    \\  /    A nd           | Version:  7
     \\/     M anipulation  |
\*---------------------------------------------------------------------------*/
FoamFile
{
    version     2.0;
    format      ascii;
    class       volScalarField;
    location    "3.8";
    object      alpha.water;
}
// * * * * * * * * * * * * * * * * * * * * * * * * * * * * * * * * * * * * * //

dimensions      [0 0 0 0 0 0 0];

internalField   nonuniform List<scalar> 
6000
(
0
0
0
0
0
0
0
0
0
0
0
0
0
0
0
0
0
0
0
0
0
0
0
0
0
0
0
0
0
0
0
0
0
0
0
0
0
0
0
0
0
0
0
0
0
0
0
0
0
0
0
0
0
0
0
0
0
0
0
0
0
0
0
0
0
0
0
0
0
0
0
0
0
0
0
0
0
0
0
0
0
0
0
0
0
0
0
0
0
0
0
0
0
0
0
0
0
0
0
0
0
0
0
0
0
0
0
0
0
0
0
0
0
0
0
0
0
0
0
1.4937440991096e-216
1.7886487597548e-215
1.1084439797671e-214
4.7250024052536e-214
1.0241205861762e-219
7.3935712425602e-195
1.3606822792931e-194
7.1990725681301e-204
6.5446118967888e-205
5.0770318105542e-204
9.4758589032843e-194
8.7490413133087e-193
3.2921936931139e-202
1.9566605056022e-193
9.0206435171667e-193
3.6851074856224e-192
1.3888814532511e-191
8.1660153705551e-202
1.0328552489301e-202
1.5567209155012e-192
4.823199651991e-192
3.3759200774209e-204
2.6927155107645e-192
3.2315514880511e-207
4.8188176531648e-193
1.8450017607768e-206
1.3010830472168e-193
3.6630300140374e-193
2.2143914564208e-207
1.7061285074679e-193
8.2735504965164e-209
3.9625177561197e-194
1.1663290829176e-193
8.5168902170021e-210
4.3282874077163e-194
2.0075526940077e-209
2.1444312867809e-209
2.524926362679e-195
4.1289093300518e-198
7.4838342393335e-196
1.3095852510057e-208
1.9070647602469e-196
1.4180360811863e-207
2.6283105407071e-197
4.346245836608e-208
4.0366359078197e-198
3.3633965312278e-198
1.4238213810605e-206
4.9891560393922e-199
7.4697341385732e-199
5.0860931538134e-199
7.0043235234442e-199
1.5422376287723e-204
1.5236876517545e-199
2.9415149444725e-206
1.8104075762332e-200
6.5229024650523e-206
4.3385103850009e-201
4.5784654263598e-201
1.7949456074028e-203
8.3674383349417e-202
2.5019247077942e-204
1.5845399068804e-202
9.8191201346983e-203
1.2540726777323e-202
1.4058061090543e-202
1.4602770604371e-203
4.5780376195612e-203
2.9650376847334e-203
3.7692562335278e-203
2.2326979556034e-203
1.6189241910648e-203
1.9797669724096e-203
1.2648991267739e-203
1.4631093617278e-203
8.6329930889134e-204
9.3350448839426e-204
8.6773333571127e-204
4.8553592193402e-204
4.7875779236871e-204
6.2508928023607e-204
0
0
0
0
0
0
0
0
0
0
0
0
0
0
0
0
0
0
0
2.0493468468894e-161
1.1275508993077e-157
7.7769051992766e-164
3.8228884782585e-147
1.1111359888494e-131
1.1451660272768e-130
2.0020830951831e-147
7.2556267742303e-128
0
0
3.6151793495574e-129
5.6867320950451e-129
1.9579039178349e-128
-1.2770540411267e-139
3.9104401754884e-131
4.1806088191753e-130
2.6622080427427e-129
4.9075898537275e-127
0
6.9261440292076e-129
2.8065501370774e-125
-1.574502212711e-141
4.3392143298754e-124
1.2673433654745e-123
2.0786906819514e-125
-8.3163895562498e-127
1.4771036252665e-126
4.6071613040983e-125
2.0327104169097e-124
1.6017118632052e-123
5.9113383506506e-123
1.5541213053229e-123
6.5458629934513e-122
1.5303085860983e-122
4.0070748389103e-123
4.0401553719574e-123
6.4457550277155e-124
8.9248708528819e-124
5.2250673458026e-124
1.5901610662159e-125
-5.9190684614175e-127
-1.6016664761465e-143
4.0935349186887e-126
-6.7141858680058e-143
2.4721086546897e-128
0
0
8.9112633367575e-129
-1.5641274181118e-146
1.6436204380527e-133
3.0549363634996e-149
2.283151325196e-133
0
7.8269728101057e-131
5.9107847493166e-135
0
0
5.9499688264656e-133
4.7388116602333e-137
0
4.6044164068872e-136
0
4.4150898147475e-136
5.6455994203596e-137
7.2980330593129e-141
1.0828226712352e-137
9.6939371851292e-138
6.8221951973218e-138
0
1.0782233872555e-142
1.4544312362233e-139
-1.9082863980219e-156
1.5545163236468e-140
1.8163317576592e-157
4.4618438840318e-142
4.9510389094348e-142
3.149370432086e-142
1.3699180362239e-142
-1.8635609355683e-159
6.8142046227135e-145
7.7567630137776e-144
0
0
0
0
0
0
0
0
0
0
0
0
0
0
0
0
0
-2.1258628774036e-99
-6.614437013292e-98
-1.1442361265388e-96
-1.4005228234433e-95
-1.3119758047201e-94
-9.8769942349333e-94
3.9179972935851e-85
2.7722185754926e-84
9.0223292945419e-83
1.0181023411707e-81
6.6692025919287e-82
3.1436435560017e-83
9.5352451417328e-85
-2.4884713247567e-96
-4.489124042721e-101
1.1429873912823e-101
-5.7149369559646e-102
3.571835597757e-103
3.2479751803918e-77
1.3158284186596e-75
5.7449138692552e-75
4.5711260667952e-74
4.1615058014798e-73
2.5994592748784e-72
5.3379064096878e-72
1.0559489941957e-72
-2.0744353388145e-80
-1.6623416119521e-83
-3.0508858754737e-80
-1.7125967635055e-82
-3.2719818043108e-77
0
0
0
1.2816659774419e-70
1.805163352918e-72
-5.3408133554791e-79
0
0
6.27282574031e-68
6.3027529963934e-69
4.1807564278193e-68
2.5134558542324e-86
-1.0536406940942e-85
1.8119945368889e-67
1.6347474944249e-67
8.0934742689288e-67
1.7498665469429e-66
3.604311751441e-66
9.6512141547686e-66
1.9185893214661e-65
4.8071812499276e-65
9.8634356508898e-65
1.8701913093614e-64
4.3718850903168e-64
7.8550101009744e-64
1.6404780227112e-63
2.877219556562e-63
4.4835287190847e-63
7.5315980967616e-63
1.019120627203e-62
1.1179024739583e-62
1.1334972463642e-62
1.1166168477269e-62
1.091275067668e-62
1.109019529671e-62
1.0774566180996e-62
9.221544476312e-63
7.4492499970098e-63
4.7328364886127e-63
2.1114285018628e-63
6.4188270582475e-64
1.3110058855538e-64
6.5718731037226e-66
7.5820909838239e-67
4.1372818102519e-67
1.4109420681427e-67
4.0244744033032e-68
1.0550064564529e-68
2.6698456668589e-69
6.8173938403862e-70
1.4410023384719e-70
7.1791194244817e-71
0
0
0
0
0
0
0
0
0
4.3245848814177e-89
3.954189225537e-87
2.0568648925855e-85
8.4291150684369e-84
2.1857048928942e-82
4.5442259501342e-81
8.786591555712e-80
1.267679583428e-78
2.3406736921528e-77
3.7452785009677e-76
4.7065157596832e-75
5.5931699452195e-74
5.6770163818185e-73
6.5970532301636e-72
6.1711787639705e-71
5.0182451987084e-70
3.6086172646807e-69
2.888662473541e-68
2.1385667608096e-67
2.576308595925e-66
1.4426245567049e-65
6.1653993875144e-65
4.815397380953e-64
1.2602550502801e-63
7.0723048641543e-63
1.553288843129e-62
4.024924051445e-62
3.2840462653793e-61
6.3615456285963e-61
3.1706664425744e-60
1.0668639838653e-59
4.1687836231484e-59
3.3985137696193e-58
2.5391405978028e-57
9.2277571990809e-57
3.5964935780949e-56
5.1523311521124e-56
7.0088717270955e-56
2.8633052386332e-57
6.4437378273579e-56
9.3413377079025e-55
2.0670193488495e-55
6.0695985159631e-54
0
4.8881100645834e-53
2.2510446167548e-52
-9.0556790788266e-70
7.3405204676917e-52
0
5.1560008377512e-52
7.1394973857468e-69
-3.7092061506873e-69
6.4382956348801e-52
2.0613616691442e-67
1.0179648602504e-51
1.8819165007383e-66
3.173225861913e-66
9.1138856867281e-53
2.0829502846639e-65
2.9424747126699e-53
1.0664531580362e-64
1.6849938284689e-64
2.7908500559439e-52
8.4883517302549e-64
6.0001521468623e-53
3.0911963404625e-63
4.2568656864159e-63
1.9582402640163e-53
1.5181841890347e-57
2.4098889563379e-63
5.0442275747176e-59
1.1953362710856e-62
1.7287285641605e-58
5.12494761323e-57
5.5026360155653e-57
9.8269148907608e-63
5.6707064973879e-56
7.3902405035514e-59
2.3392074795229e-63
7.0528799578527e-59
1.6963807460497e-58
2.8385450680462e-65
5.3365178465999e-66
3.8748280192296e-59
1.8597082552971e-59
8.2313008215363e-60
8.99885982543e-60
2.481888657175e-60
2.1728395058529e-60
6.4547697131173e-61
6.4106622400607e-61
0
0
0
0
0
0
0
6.6701511412373e-80
1.1491520874701e-77
9.7494687525274e-76
5.4420294964422e-74
2.2518545781603e-72
7.3789167506282e-71
1.996774662843e-69
4.5914367173389e-68
9.1534530470304e-67
1.6053064003758e-65
2.5041667663112e-64
3.5064083182654e-63
4.4443025430451e-62
5.1425443049745e-61
5.481712773427e-60
5.435078857082e-59
5.0617820052119e-58
4.4684033998076e-57
3.766308191939e-56
3.0452450252431e-55
2.3664094166157e-54
1.7666468675745e-53
1.2648367915558e-52
8.6648956475817e-52
5.6678147481558e-51
3.5340457161258e-50
2.0982383912501e-49
1.1855181342456e-48
6.3731838383401e-48
3.2602899057582e-47
1.5876508229802e-46
7.3630525842041e-46
3.2538911004418e-45
1.3710196361606e-44
5.5110753108654e-44
2.1146208106999e-43
7.7494959058065e-43
2.7138587474646e-42
9.0862982848226e-42
2.9098480572458e-41
8.9170134606413e-41
2.615783624258e-40
7.3480373751313e-40
1.9772867050992e-39
5.098326088691e-39
1.2599900605342e-38
2.9853990381619e-38
6.7832910020348e-38
1.4783593780407e-37
3.0910627268399e-37
6.201420114562e-37
1.193896935671e-36
2.2055940173561e-36
3.909201087923e-36
6.6446890785539e-36
1.0823619193712e-35
1.6876885109168e-35
2.5147911517984e-35
3.5717575922998e-35
4.813729797683e-35
6.0968162078243e-35
7.1111442155346e-35
7.5193626315891e-35
7.5185170234956e-35
7.4116007450741e-35
7.0955744191802e-35
6.4588172299869e-35
5.4920522563555e-35
4.287902992559e-35
3.0186484757417e-35
1.8770247477935e-35
1.0081265242094e-35
4.5862765424843e-36
1.7563853989569e-36
5.7814655880037e-37
1.722156458554e-37
4.9396231359095e-38
1.4228779363819e-38
4.1661956392099e-39
1.2340120040206e-39
3.6709244337643e-40
1.0924873704148e-40
3.2503004557455e-41
9.6742806580283e-42
2.8833715475869e-42
8.6095974661439e-43
2.5754283078843e-43
7.713184377678e-44
2.3128414513571e-44
6.8962397553661e-45
2.131072371221e-45
4.877828956076e-46
3.5089588019271e-46
0
0
0
0
0
0
5.9043791580952e-80
1.5336229557029e-77
1.7609962183921e-75
1.2538022415452e-73
6.3683578027657e-72
2.4921612155449e-70
7.8904257328765e-69
2.0902321342867e-67
4.7452278010814e-66
9.3950304131601e-65
1.6439835893862e-63
2.5695034083312e-62
3.6183723576075e-61
4.6242701190507e-60
5.3982769459567e-59
5.7938437834771e-58
5.7582840514176e-57
5.3425057317744e-56
4.6671225128691e-55
3.8702983542453e-54
3.0671091971138e-53
2.3332315507778e-52
1.7075994656596e-51
1.2026334634756e-50
8.1423976515592e-50
5.2905514595918e-49
3.2927427416294e-48
1.9595859317439e-47
1.1135279559273e-46
6.03553718491e-46
3.1183165186489e-45
1.5352138429668e-44
7.2016676253818e-44
3.2193774297369e-43
1.3718514461352e-42
5.5744493312453e-42
2.1609520744191e-41
7.9953686966527e-41
2.8248097727559e-40
9.5346467874634e-40
3.0760223864193e-39
9.4895350934419e-39
2.8007092152652e-38
7.9113691748396e-38
2.1398521088584e-37
5.5442805176359e-37
1.3765939867644e-36
3.2765668768887e-36
7.4784979458781e-36
1.6371601842031e-35
3.4380564218344e-35
6.926353514237e-35
1.3385999758152e-34
2.4813854306695e-34
4.41090934957e-34
7.5158919808483e-34
1.2268271862961e-33
1.9165378088937e-33
2.861203767671e-33
4.0729287759328e-33
5.5063573014865e-33
7.0091876776416e-33
8.2449848443511e-33
8.803547298563e-33
8.8291570644207e-33
8.7240152961575e-33
8.3940235355391e-33
7.7048796246018e-33
6.6250779304079e-33
5.2483356653062e-33
3.7646572661613e-33
2.3980772549996e-33
1.328266198554e-33
6.2764659872443e-34
2.5098210358788e-34
8.6240981220473e-35
2.6614154815711e-35
7.8198734088441e-36
2.2876485296765e-36
6.7795125512349e-37
2.0326019964641e-37
6.1277750236873e-38
1.8502128283391e-38
5.5891243318179e-39
1.6900018477069e-39
5.1191254768506e-40
1.5539615105762e-40
4.7265527882284e-41
1.4393062704917e-41
4.3872551410286e-42
1.3288898542367e-42
4.1740210782064e-43
9.6048623392932e-44
7.1306985110119e-44
0
0
0
0
0
2.7619444407926e-80
9.4912990116014e-78
1.4149963528448e-75
1.2622751602673e-73
7.8050431261726e-72
3.6357438135233e-70
1.3456067613728e-68
4.1063413009756e-67
1.0615590446575e-65
2.3719001815826e-64
4.6507060778407e-63
8.0989567579802e-62
1.2648164844595e-60
1.7854909179005e-59
2.2935726539397e-58
2.6965944884972e-57
2.9171610569121e-56
2.9186376126809e-55
2.7159954517283e-54
2.3668483784018e-53
1.9471515447366e-52
1.5247990561925e-51
1.1443932081707e-50
8.2650059529419e-50
5.7501629754141e-49
3.849799348672e-48
2.475598920705e-47
1.5260715418655e-46
9.0048927099185e-46
5.0811678915314e-45
2.740131792022e-44
1.411730004504e-43
6.9472455281723e-43
3.2650710726922e-42
1.4653643470507e-41
6.2796735297907e-41
2.5694722668148e-40
1.0038202867643e-39
3.7443544106976e-39
1.3336003541806e-38
4.5356254491871e-38
1.4732082343818e-37
4.5706693454559e-37
1.3548213181714e-36
3.8379463671327e-36
1.0394317722677e-35
2.6926777583528e-35
6.6761874357686e-35
1.5854444149743e-34
3.6093631847238e-34
7.8847427174361e-34
1.6544410242827e-33
3.3373937383897e-33
6.4763329160215e-33
1.2092280277231e-32
2.1717275890326e-32
3.7483315455055e-32
6.2087466603205e-32
9.8516697432946e-32
1.4941361479443e-31
2.1600507973887e-31
2.9649230722226e-31
3.8346816917327e-31
4.5963292679445e-31
5.0007511372405e-31
5.0486330565342e-31
5.0033361215245e-31
4.8438184589849e-31
4.4923629432711e-31
3.9133423387951e-31
3.1505814651555e-31
2.3049658827019e-31
1.5044841992892e-31
8.5883647057091e-32
4.2092678686179e-32
1.7545528602531e-32
6.2873109949484e-33
2.011151038082e-33
6.0629131771576e-34
1.804003093544e-34
5.4154344900675e-35
1.6438720576205e-35
5.022579432001e-36
1.5386833527638e-36
4.7202875612816e-37
1.450461026104e-37
4.4672532118804e-38
1.3793729695094e-38
4.2684690175128e-39
1.3223495116281e-39
4.0994805791524e-40
1.2618967154317e-40
4.0302428242826e-41
9.3160173087916e-42
7.1501559396479e-42
0
0
0
0
0
2.400303850812e-78
5.9683221861099e-76
7.1734358474761e-74
5.5405081395737e-72
3.102130764148e-70
1.3475319697464e-68
4.7449566519348e-67
1.3972330605226e-65
3.5211207423608e-64
7.7274723058517e-63
1.497013053173e-61
2.5880228961969e-60
4.0280409603691e-59
5.6850213776042e-58
7.3209032372996e-57
8.648380106178e-56
9.4160069499689e-55
9.4876192713264e-54
8.883661188468e-53
7.7668178838228e-52
6.3791426978452e-51
4.9601894390059e-50
3.6829617598704e-49
2.6318283489315e-48
1.8194391969205e-47
1.2191259004593e-46
7.9115744346096e-46
4.9623710124961e-45
3.0013575662157e-44
1.7466595909142e-43
9.7614117305949e-43
5.229430162657e-42
2.6811690328556e-41
1.3136911095385e-40
6.1436809973263e-40
2.7396812827229e-39
1.164058955887e-38
4.7098362717749e-38
1.8138956996921e-37
6.6475770544196e-37
2.3177142459657e-36
7.6863442963191e-36
2.4241901780807e-35
7.2697923406779e-35
2.0725430305684e-34
5.6160468091031e-34
1.4462368087871e-33
3.5392339667723e-33
8.2320120584765e-33
1.8207098722899e-32
3.8330527001714e-32
7.6939285281436e-32
1.4761661598739e-31
2.7160277566646e-31
4.8105216476826e-31
8.2322534383223e-31
1.3650156232396e-30
2.1955752057459e-30
3.4223684313864e-30
5.1540879367582e-30
7.4641873921425e-30
1.0331050799592e-29
1.3545701686123e-29
1.6558855454049e-29
1.8436148116281e-29
1.8826021470966e-29
1.870744804214e-29
1.8223863174533e-29
1.7089313351596e-29
1.5092727761086e-29
1.2358695430553e-29
9.2264275656905e-30
6.1708940214913e-30
3.6282811596269e-30
1.8421312487032e-30
7.9920423813321e-31
2.9837386185715e-31
9.895668184311e-32
3.0649553620006e-32
9.2894668994239e-33
2.8273610023629e-33
8.6930744113586e-34
2.6922240274227e-34
8.3695927073349e-35
2.6081649239109e-35
8.1478369200238e-36
2.5528922702004e-36
8.0230022374595e-37
2.5275192950411e-37
7.9708623084008e-38
2.5146206940486e-38
7.8696591372199e-39
2.5567540288317e-39
5.9310407935812e-40
4.7158431426422e-40
0
0
0
0
6.6837291845105e-89
1.0138712315939e-76
2.210669175466e-74
2.3836896032712e-72
1.6886629700594e-70
8.8325368639081e-69
3.6374775379486e-67
1.2286740311183e-65
3.5033439727256e-64
8.6129509853172e-63
1.855205248209e-61
3.5454751854642e-60
6.0726908968817e-59
9.3984257369809e-58
1.3231535741702e-56
1.7042429725989e-55
2.0182261574242e-54
2.206943092329e-53
2.2368713066986e-52
2.1085591825987e-51
1.8544729789237e-50
1.5275598928747e-49
1.1851157824171e-48
8.733751145205e-48
6.1829756247483e-47
4.2554165264149e-46
2.874789462029e-45
1.9158149689222e-44
1.2593653755536e-43
8.1322920253574e-43
5.1251450033052e-42
3.1294553830216e-41
1.838840529828e-40
1.0338834882052e-39
5.5381622819256e-39
2.8175247188972e-38
1.3584657970988e-37
6.1987734043956e-37
2.6746758156375e-36
1.0907793815863e-35
4.2033470302359e-35
1.5303618448749e-34
5.2638898687281e-34
1.710454262595e-33
5.2502210167259e-33
1.522140527945e-32
4.1673550461153e-32
1.0771195088503e-31
2.6270287294896e-31
6.0419394777449e-31
1.3092559005542e-30
2.6704671819951e-30
5.1227494875218e-30
9.2403084662328e-30
1.5691724285235e-29
2.5178704981716e-29
3.8434085213548e-29
5.6355215864952e-29
8.0253309575358e-29
1.120649441046e-28
1.5428873162814e-28
2.0938222965565e-28
2.7837777187459e-28
3.5846799510691e-28
4.3891610161458e-28
4.9700486073287e-28
5.1479274697144e-28
5.1294449530587e-28
5.0262387332468e-28
4.7633667670235e-28
4.2664381463291e-28
3.5547518609996e-28
2.7091220903896e-28
1.856881370714e-28
1.1241302985451e-28
5.9074820716202e-29
2.6648411222071e-29
1.0358888402446e-29
3.5634975225013e-30
1.1354603813437e-30
3.5106023444498e-31
1.0844001452431e-31
3.3786415644449e-32
1.0608496602191e-32
3.3473682635185e-33
1.0599241446934e-33
3.3677579878464e-34
1.0740682931449e-34
3.4378321660196e-35
1.1033446683615e-35
3.5444719670464e-36
1.1385854629706e-36
3.624466903545e-37
1.1984212980023e-37
2.7865788320933e-38
2.3010806249188e-38
0
0
0
0
4.067568606479e-87
2.7845337031536e-75
5.6671143516891e-73
5.7415468685091e-71
3.8520514852176e-69
1.9229084087498e-67
7.6120326951515e-66
2.4874746886879e-64
6.900626572694e-63
1.6588079980452e-61
3.5088929476945e-60
6.6116040850269e-59
1.1205126961293e-57
1.7213591009623e-56
2.41259439228e-55
3.1017265922356e-54
3.6745033872793e-53
4.0272179345638e-52
4.098422602206e-51
3.8852407669938e-50
3.4392998512214e-49
2.8485866677751e-48
2.2139848450348e-47
1.6253337846997e-46
1.1414968273868e-45
7.817712336008e-45
5.3307840851675e-44
3.6708093967834e-43
2.5560875207585e-42
1.7807414837737e-41
1.221007698833e-40
8.1105721147271e-40
5.1561246835491e-39
3.1118742073242e-38
1.7743337416236e-37
9.5324881124217e-37
4.8192329498909e-36
2.2916669168394e-35
1.0250192157837e-34
4.3135247758042e-34
1.7084928711134e-33
6.371540613802e-33
2.2381072511001e-32
7.4071322033733e-32
2.3101782708024e-31
6.7907092616272e-31
1.8812352528731e-30
4.9105249032521e-30
1.2071729028613e-29
2.7929113128585e-29
6.0750987055609e-29
1.2407195267645e-28
2.3749528493501e-28
4.2514150014357e-28
7.0997480687485e-28
1.1041419322096e-27
1.6005937401343e-27
2.1759975994193e-27
2.8093079985706e-27
3.5038929362922e-27
4.2957247811198e-27
5.2437526491139e-27
6.4052040555009e-27
7.7907073261664e-27
9.2824887602212e-27
1.0512661231049e-26
1.1013721941962e-26
1.1004522032204e-26
1.0839834960169e-26
1.0363631851048e-26
9.4106117043947e-27
7.9781243635186e-27
6.2101391947451e-27
4.3648603391097e-27
2.7216387583024e-27
1.4800143403525e-27
6.9357058946196e-28
2.8045110527158e-28
1.0004250089889e-28
3.2818970223171e-29
1.0364321163252e-29
3.2528790836946e-30
1.0277998531089e-30
3.2733711682425e-31
1.0487238750002e-31
3.3756167173303e-32
1.0914591197188e-32
3.5455326485538e-33
1.1566549583702e-33
3.7847424331737e-34
1.2394588949726e-34
4.0568206637912e-35
1.3142903387612e-35
4.425162517083e-36
1.0297849940595e-36
8.8591616221237e-37
0
0
0
0
8.6756469997095e-86
5.6031995255819e-74
1.0949386349955e-71
1.0674075347102e-69
6.9114434795111e-68
3.3407597431358e-66
1.2848839406129e-64
4.0930651715558e-63
1.1104175984234e-61
2.6182158234736e-60
5.4479028860618e-59
1.0125580785851e-57
1.6972513904073e-56
2.5853240211469e-55
3.6018582230295e-54
4.6140315122221e-53
5.4579530119261e-52
5.9841153158288e-51
6.1027197802718e-50
5.8076390286046e-49
5.1696742825458e-48
4.3089092425877e-47
3.3645567948125e-46
2.469285455503e-45
1.7235206553961e-44
1.1726119771006e-43
8.0354880855985e-43
5.6844479537385e-42
4.1579138973632e-41
3.0836977532576e-40
2.257802248546e-39
1.5955742919333e-38
1.0720458119847e-37
6.7889057907813e-37
4.0344340108623e-36
2.2460116374497e-35
1.1710764135616e-34
5.721853244161e-34
2.6221084700297e-33
1.1281116860443e-32
4.5608506319723e-32
1.7341369803358e-31
6.2050801585314e-31
2.090488298147e-30
6.6331931658029e-30
1.9826040266341e-29
5.5816922444191e-29
1.4797906214934e-28
3.6924307347521e-28
8.6650518751115e-28
1.9104897971745e-27
3.9519490830076e-27
7.6536617268728e-27
1.3840899146533e-26
2.3298363733997e-26
3.6362094582613e-26
5.2375686592428e-26
6.942820291724e-26
8.511796805823e-26
9.8182619518328e-26
1.0928747089175e-25
1.2015188905159e-25
1.325815238171e-25
1.4792257150278e-25
1.6612531281631e-25
1.8365596971944e-25
1.9292334661999e-25
1.933718779993e-25
1.9123679732544e-25
1.8428750006521e-25
1.6950819511399e-25
1.4609131890069e-25
1.1599200035166e-25
8.3443793523577e-26
5.3473225043013e-26
3.0028305185095e-26
1.4598307640141e-26
6.1388076004423e-27
2.273291685498e-27
7.6934466161254e-28
2.4867148432088e-28
7.9410537137682e-29
2.5464624298206e-29
8.2298469480511e-30
2.6782172818795e-30
8.7673169809451e-31
2.8864964278889e-31
9.5574083071109e-32
3.1803889683298e-32
1.0618945429973e-32
3.5480056780636e-33
1.1841231322677e-33
3.9064824161704e-34
1.3402197750333e-34
3.1151580218359e-35
2.8030640861656e-35
0
0
0
0
3.8193049770434e-85
8.8203072390932e-73
1.6802308874087e-70
1.5977644802144e-68
1.0102740814138e-66
4.7753401696257e-65
1.7987844284735e-63
5.6212586847301e-62
1.4985147976317e-60
3.4776958693012e-59
7.1344658354139e-58
1.3096496101737e-56
2.1720476632161e-55
3.2795990985895e-54
4.5377971030832e-53
5.78452385948e-52
6.8220263954348e-51
7.4704318715604e-50
7.6211367849191e-49
7.2665512487399e-48
6.4927991372002e-47
5.4426206685629e-46
4.275892603673e-45
3.1472980121628e-44
2.1885089297972e-43
1.4764181896744e-42
1.0087101110579e-41
7.2353526332802e-41
5.4674585190735e-40
4.2358927808925e-39
3.2480944306582e-38
2.3984960695549e-37
1.6773805097577e-36
1.1012918482441e-35
6.7612436553584e-35
3.8765282839714e-34
2.0759857997258e-33
1.0393853502062e-32
4.8714369231546e-32
2.1402303068887e-31
8.8256525944435e-31
3.4197930725668e-30
1.246257921559e-29
4.274253168249e-29
1.3802241535084e-28
4.1973580677211e-28
1.2021108692189e-27
3.2416445842424e-27
8.2270092154176e-27
1.9636901340413e-26
4.4039911786215e-26
9.2678798605069e-26
1.8266343378534e-25
3.3634369546484e-25
5.767759750881e-25
9.1714728720838e-25
1.3435582690394e-24
1.7986231616325e-24
2.1834696684882e-24
2.4301933580525e-24
2.5353901641221e-24
2.5762901962186e-24
2.6088902369517e-24
2.6556524944245e-24
2.7300553200007e-24
2.8283504524269e-24
2.896734696897e-24
2.8988456625034e-24
2.8698278134278e-24
2.7720165652134e-24
2.5633719605978e-24
2.2326215429407e-24
1.8019679761817e-24
1.3254670553408e-24
8.7321169198288e-25
5.0664347865126e-25
2.5558204650828e-25
1.1178596717252e-25
4.2998425085251e-26
1.5031889360218e-26
4.981275064876e-27
1.6208626156012e-27
5.2800309454553e-28
1.7326576621545e-28
5.7299627730123e-29
1.9085925237551e-29
6.4021629274505e-30
2.1622354840282e-30
7.3453772893064e-31
2.5047090340756e-31
8.5454597261803e-32
2.9103728205463e-32
9.7836669697024e-33
3.422724519037e-33
7.9248320675655e-34
7.4971559608956e-34
0
0
0
0
2.6437704824153e-85
1.1321659122017e-71
2.121555363387e-69
1.9846122245174e-67
1.234872585608e-65
5.746846855614e-64
2.1326684630932e-62
6.5708210117824e-61
1.7283458194883e-59
3.9609955930625e-58
8.0317344637234e-57
1.4586843434579e-55
2.3960998187429e-54
3.5875909752718e-53
4.9288030170909e-52
6.247577890203e-51
7.3381121170808e-50
8.0153289330929e-49
8.1682009007903e-48
7.7900039031176e-47
6.9730055312622e-46
5.868717316285e-45
4.639009493979e-44
3.4331340140312e-43
2.3860176453592e-42
1.5949048253941e-41
1.0768463585625e-40
7.7077272953664e-40
5.9065128362131e-39
4.6970503919703e-38
3.7156544783991e-37
2.8323433828362e-36
2.042691116216e-35
1.3812943565645e-34
8.7245553900551e-34
5.1415099881921e-33
2.8276108779039e-32
1.4524323738195e-31
6.9761844595956e-31
3.1372190780931e-30
1.3226537671681e-29
5.234308661481e-29
1.9465116612246e-28
6.8080995820428e-28
2.2410671211814e-27
6.9459134242142e-27
2.0273476222701e-26
5.5720951219248e-26
1.4416212307628e-25
3.5087943183925e-25
8.0267042541929e-25
1.723558196901e-24
3.4677915900703e-24
6.5222156871687e-24
1.1432296418835e-23
1.8594823820845e-23
2.7886175429714e-23
3.814286118587e-23
4.6811111251777e-23
5.1137065089129e-23
5.1657449153744e-23
5.1199955105746e-23
4.9734986908331e-23
4.704587149973e-23
4.3801443087103e-23
4.1163182412919e-23
3.9509751105574e-23
3.8382036535096e-23
3.7218927462892e-23
3.5521865635216e-23
3.2835086333316e-23
2.8871415574555e-23
2.3704949801218e-23
1.7842613585061e-23
1.2090880586256e-23
7.2513166577081e-24
3.7973724955963e-24
1.7283955777786e-24
6.9113567626461e-25
2.4989701683031e-25
8.5022119437609e-26
2.8224098262128e-26
9.3476057164232e-27
3.1162381752607e-27
1.0477074130001e-27
3.5525578237972e-28
1.2148094922173e-28
4.1878323775283e-29
1.4534993878774e-29
5.0660743657777e-30
1.7664500130035e-30
6.1443607917046e-31
2.1061980185889e-31
7.5203985348869e-32
1.7312944606826e-32
1.7272968281878e-32
0
0
0
4.4190932209131e-99
9.7326650911556e-85
1.2193883838897e-70
2.2608027840834e-68
2.0920557173274e-66
1.2876494803508e-64
5.9282365995245e-63
2.176816738984e-61
6.6380286897776e-60
1.7286414586004e-58
3.92357859029e-57
7.8826072827775e-56
1.4190726660445e-54
2.3119160118585e-53
3.4354949221448e-52
4.6879901886372e-51
5.9078191183296e-50
6.9066519052619e-49
7.5182624517352e-48
7.6450608735776e-47
7.2834397816967e-46
6.5201888085536e-45
5.4982906534367e-44
4.3669888980474e-43
3.2532943405496e-42
2.2683147775947e-41
1.5048816532829e-40
9.9719937886791e-40
7.0078660666087e-39
5.343416941068e-38
4.292195642863e-37
3.4615357343288e-36
2.70081407592e-35
1.9965966407697e-34
1.3847574481721e-33
8.9747472887523e-33
5.4293393547985e-32
3.0664258563473e-31
1.6181297067524e-30
7.985662015383e-30
3.6895102773514e-29
1.5975169547466e-28
6.4895897814781e-28
2.4760550616939e-27
8.8820762628148e-27
2.9980586186377e-26
9.5275816739492e-26
2.8513630787262e-25
8.0355309462922e-25
2.131491744157e-24
5.3177951940696e-24
1.2464636123754e-23
2.7408369171368e-23
5.6430885054451e-23
1.0852391241206e-22
1.9433455982759e-22
3.2268136274713e-22
4.9362898079132e-22
6.8743226850368e-22
8.5229649685485e-22
9.2540713730341e-22
9.2767818135066e-22
9.1217724322562e-22
8.6723998673014e-22
7.8414293789376e-22
6.772847906652e-22
5.7572237686174e-22
5.0190610845621e-22
4.5639695391205e-22
4.2594778869021e-22
3.9832026677593e-22
3.6557404841535e-22
3.2281776842936e-22
2.6874322589454e-22
2.0669493581963e-22
1.4404122220241e-22
8.9332659996872e-23
4.8598654435629e-23
2.3039609031021e-23
9.5885268386688e-24
3.5909286348341e-24
1.256166306694e-24
4.2588792453977e-25
1.4349953639413e-25
4.8617793960028e-26
1.662271172011e-26
5.7397960467581e-27
2.001821828337e-27
7.0482447552625e-28
2.5011796624485e-28
8.9182164597995e-29
3.1808295409032e-29
1.1309896881252e-29
3.9563647149459e-30
1.4424699349809e-30
3.3486937401075e-31
3.4359918642781e-31
0
0
0
3.7150802671521e-96
2.0972720198498e-83
1.1252437982852e-69
2.0722683361133e-67
1.9041616502854e-65
1.1635668097545e-63
5.3178389209109e-62
1.9383422811689e-60
5.8675584700619e-59
1.5168924361114e-57
3.4181823636886e-56
6.8186713991224e-55
1.2190316842291e-53
1.9726577669747e-52
2.9125556194638e-51
3.950413694662e-50
4.9508087217284e-49
5.7600299116988e-48
6.2455621689436e-47
6.3323602323888e-46
6.0209309172289e-45
5.3838790745502e-44
4.5404655217764e-43
3.6156308242743e-42
2.7098603457449e-41
1.9013381313495e-40
1.25763961403e-39
8.1614753033728e-39
5.553072833149e-38
4.1306302128077e-37
3.2964371087423e-36
2.6809239843706e-35
2.1266903529585e-34
1.6045980028451e-33
1.138059892556e-32
7.5526526041503e-32
4.6841019089328e-31
2.7153601344773e-30
1.4724642851211e-29
7.477098822179e-29
3.5593076100424e-28
1.5898750780066e-27
6.6692284083635e-27
2.6290755348707e-26
9.7457100903787e-26
3.3988617696821e-25
1.115611219634e-24
3.446557672125e-24
1.0019436340251e-23
2.7391928745139e-23
7.0356640852543e-23
1.6956094439003e-22
3.8278605992007e-22
8.0777533630221e-22
1.5893542101066e-21
2.9062064703493e-21
4.9174915527219e-21
7.6496007334217e-21
1.0799637399912e-20
1.348848874538e-20
1.4629681861105e-20
1.4625825829498e-20
1.4316574716179e-20
1.3434265057935e-20
1.1807497793982e-20
9.6811636092651e-21
7.573784899428e-21
5.9583452326733e-21
4.9550051131841e-21
4.3705722820195e-21
3.9667500425954e-21
3.5939150005273e-21
3.1722887043872e-21
2.6676604337913e-21
2.0910503941072e-21
1.4963350952025e-21
9.5905148672687e-22
5.4200772018266e-22
2.677892448704e-22
1.1612643992832e-22
4.5119679718125e-23
1.6256889021792e-23
5.6366840351964e-24
1.9336021389377e-24
6.6596791665304e-25
2.3158963543983e-25
8.1449840231566e-26
2.8981922856151e-26
1.0427463001586e-26
3.7859363114962e-27
1.3820765073683e-27
5.0467640484599e-28
1.8360108153459e-28
6.5606478647873e-29
2.4426165326576e-29
5.7626989903379e-30
6.024522001318e-30
0
0
0
5.5559073128042e-95
1.1622551198524e-82
9.0384855226403e-69
1.6579719709143e-66
1.5169418803612e-64
9.2272293773871e-63
4.1969765284865e-61
1.5222415050033e-59
4.5847444752266e-58
1.1791756191707e-56
2.6433346592519e-55
5.2453345531009e-54
9.3280247615732e-53
1.5014946937733e-51
2.2053332737711e-50
2.9758906840974e-49
3.7111195518183e-48
4.2979896985251e-47
4.6415018532669e-46
4.6902931177018e-45
4.4480542674652e-44
3.9696861289624e-43
3.3436735047378e-42
2.6637721261026e-41
2.0044068303395e-40
1.4166065470371e-39
9.3953218352514e-39
5.9973566365031e-38
3.9202427374391e-37
2.7894121785508e-36
2.168735982824e-35
1.7561837747962e-34
1.406725847148e-33
1.0793465153654e-32
7.8111473101546e-32
5.2994103904729e-31
3.3649679253979e-30
2.0002618208051e-29
1.1142447538125e-28
5.8238268222333e-28
2.859872262816e-27
1.3210447581156e-26
5.74481938378e-26
2.3525890008418e-25
9.070695473481e-25
3.2911105935465e-24
1.1230083427534e-23
3.6014992984499e-23
1.0848078802118e-22
3.0665854529304e-22
8.1275320296373e-22
2.0169997452114e-21
4.679220139079e-21
1.0125963181532e-20
2.0386660477599e-20
3.8058630005098e-20
6.5581837429194e-20
1.0362273373369e-19
1.4809391307371e-19
1.8621297894442e-19
2.0199112093861e-19
2.0171741495988e-19
1.9671896476381e-19
1.8292891732018e-19
1.5758223314103e-19
1.2443736350531e-19
9.1240603601316e-20
6.536011541268e-20
4.9254778749702e-20
4.0471476546581e-20
3.5343637219668e-20