/*--------------------------------*- C++ -*----------------------------------*\
  =========                 |
  \\      /  F ield         | OpenFOAM: The Open Source CFD Toolbox
   \\    /   O peration     | Website:  https://openfoam.org
    \\  /    A nd           | Version:  7
     \\/     M anipulation  |
\*---------------------------------------------------------------------------*/
FoamFile
{
    version     2.0;
    format      ascii;
    class       volScalarField;
    location    "1.7";
    object      alpha.water;
}
// * * * * * * * * * * * * * * * * * * * * * * * * * * * * * * * * * * * * * //

dimensions      [0 0 0 0 0 0 0];

internalField   nonuniform List<scalar> 
6000
(
0
0
0
0
0
0
0
0
0
0
0
0
0
0
0
0
0
0
0
0
0
0
0
0
0
0
0
0
0
0
0
0
0
0
0
0
0
0
0
0
0
0
0
0
0
0
0
0
0
0
0
0
0
0
0
0
0
0
0
0
0
0
0
0
0
0
0
0
0
0
0
0
0
0
0
0
0
0
0
0
0
0
0
0
0
0
0
0
0
0
0
0
0
0
0
0
0
0
0
0
0
0
0
0
0
0
0
0
0
0
0
0
0
0
0
0
0
0
0
0
0
0
0
0
0
0
0
0
0
0
0
0
0
0
0
0
0
0
0
0
0
0
0
0
0
0
0
0
0
0
0
0
0
0
0
0
0
0
0
0
0
0
0
0
0
0
0
0
0
0
0
0
0
0
0
0
0
0
0
0
0
0
0
0
0
0
0
0
0
0
0
0
0
0
0
0
0
0
0
0
0
0
0
0
0
0
0
0
0
0
0
0
0
0
0
0
0
0
0
0
0
0
0
0
0
0
0
0
0
0
0
0
0
0
0
0
0
0
0
0
0
0
0
0
0
0
0
0
0
0
0
0
0
0
0
0
0
0
0
0
0
0
0
0
0
0
0
0
0
0
0
0
0
0
0
0
0
0
0
0
0
0
0
0
0
0
0
0
0
0
0
0
0
0
0
0
0
0
0
0
0
0
0
0
0
0
0
0
0
0
0
0
0
0
0
0
0
0
0
0
0
0
0
0
0
0
0
0
0
0
0
0
0
0
0
0
0
0
0
0
0
0
0
0
0
0
0
0
0
0
0
0
0
0
0
0
0
0
0
0
0
0
0
0
0
0
0
0
0
0
0
0
0
0
0
0
0
0
0
0
0
0
0
0
0
0
0
0
0
0
0
0
0
0
0
0
0
0
0
0
0
0
0
0
0
0
0
0
0
7.6942058208292e-54
4.2046945196847e-52
1.1413561191325e-50
2.050699631444e-49
2.7428959995879e-48
2.9129842986826e-47
2.5584508829019e-46
1.9113436117279e-45
1.2397699190554e-44
7.0923672254109e-44
3.6229228329468e-43
1.6690868996494e-42
6.9924160986096e-42
2.6822608613771e-41
9.4765197594398e-41
3.0992981830923e-40
9.4243174697629e-40
2.6747237660901e-39
7.1092936925394e-39
1.7750291647051e-38
4.1743694914355e-38
9.2691451478305e-38
1.9476368288221e-37
3.880281107441e-37
7.34338841027e-37
1.3223043631382e-36
2.2689881773558e-36
3.7154372152871e-36
5.8133827769469e-36
8.7018376958929e-36
1.2474987030404e-35
1.7146124253143e-35
2.2615548754314e-35
2.8651917624218e-35
3.4895579112675e-35
4.0888202230651e-35
4.6127043290734e-35
5.0135163161435e-35
5.2533850938573e-35
5.31018601638e-35
5.1808597926974e-35
4.8814484962256e-35
4.4439568583017e-35
3.910856196098e-35
3.3285060287936e-35
2.7408531834873e-35
2.1845094169366e-35
1.6858406844375e-35
1.260163949679e-35
9.1270392826886e-36
6.407095911447e-36
4.3606268586512e-36
2.8781498357557e-36
1.8427556183749e-36
1.1447694516291e-36
6.9018206916839e-37
4.0392231531267e-37
2.2951304004027e-37
1.2664065278565e-37
6.7868857566724e-38
3.5332072399407e-38
1.787036004502e-38
8.7825823204974e-39
4.1945941670881e-39
1.9470880949889e-39
8.7852353878281e-40
3.8533009884239e-40
1.6430810004459e-40
6.8117997100227e-41
2.7457900097489e-41
1.0762088616855e-41
4.1017250401091e-42
1.5201607035563e-42
5.4786494804013e-43
1.9200938282044e-43
6.5438814429188e-44
2.1687396150016e-44
6.9892223085123e-45
2.1902107021523e-45
6.6735989155793e-46
1.9770993841677e-46
5.6946064006255e-47
1.5945332708997e-47
4.3401152886789e-48
1.1482201565038e-48
2.9522884112971e-49
7.3765047092347e-50
1.7907874215511e-50
4.2235441064506e-51
9.6756997110961e-52
2.7400206469976e-52
0
0
0
0
0
0
0
-7.1018797055363e-44
-3.5417324776771e-42
-8.7424375300823e-41
-1.4233777379373e-39
-1.7184141200912e-38
-1.6394678057253e-37
-1.2861471379627e-36
-8.5212736759825e-36
-4.8583221076511e-35
-2.4153704960527e-34
-1.0565157171446e-33
-4.0862791437506e-33
-1.3981716076917e-32
-4.2069045855964e-32
-1.0928760113154e-31
-2.332924138537e-31
-3.4471020894586e-31
2.2800456318276e-32
2.636564064526e-30
1.2812311806472e-29
4.4323711849212e-29
1.2895252133638e-28
3.3309999698858e-28
7.8353944931457e-28
1.7025442474457e-27
3.4487248406274e-27
6.554103698461e-27
1.1741619950022e-26
1.990310487285e-26
3.2019236178524e-26
4.9012735559879e-26
7.1544187920819e-26
9.978252027372e-26
1.3320199465088e-25
1.7046587619738e-25
2.0944744593788e-25
2.4741122838306e-25
2.8133779080015e-25
3.0833617470943e-25
3.2606185913501e-25
3.3305398015085e-25
3.2892468051322e-25
3.1436945646032e-25
2.910087238945e-25
2.6110554086831e-25
2.272240817464e-25
1.9189538501307e-25
1.5734389277648e-25
1.2530659312678e-25
9.6953170208086e-26
7.2896080950766e-26
5.3267049450333e-26
3.7831715404994e-26
2.6115838506523e-26
1.7522323409825e-26
1.1426007032179e-26
7.2406542467904e-27
4.4586236815473e-27
2.66759161927e-27
1.5505587954422e-27
8.7551406552641e-28
4.8017730006598e-28
2.5577852783068e-28
1.3231648345684e-28
6.6468797806407e-29
3.2422408299693e-29
1.5355659472715e-29
7.0609276466367e-30
3.1521079122319e-30
1.3660399222065e-30
5.7468004411106e-31
2.3467483228285e-31
9.3016745403603e-32
3.5783702567465e-32
1.3360183835382e-32
4.8407634816143e-33
1.7019942617625e-33
5.8064473855417e-34
1.9219093367551e-34
6.1713926594405e-35
1.9222723646762e-35
5.8073372237174e-36
1.7014275831384e-36
4.8335117128936e-37
1.3312446432923e-37
3.554067420356e-38
9.1957400935804e-39
2.305445137176e-39
5.5993387612092e-40
1.3171397550201e-40
3.0000714263826e-41
6.6148366368877e-42
1.774780950234e-42
0
0
0
0
0
0
-3.1504502060994e-42
-1.6514536578282e-40
-4.2905376389091e-39
-7.3656954225592e-38
-9.3991416238721e-37
-9.5087357444348e-36
-7.9432861368778e-35
-5.6351142098559e-34
-3.4651790544746e-33
-1.8760331970958e-32
-9.0524140861548e-32
-3.9316319571983e-31
-1.5494135224279e-30
-5.5777115059706e-30
-1.8445038014392e-29
-5.6298926678502e-29
-1.5924493252336e-28
-4.1884665438064e-28
-1.0273286759834e-27
-2.3553216054788e-27
-5.0569175108434e-27
-1.0181329062362e-26
-1.9237518325066e-26
-3.4116684930772e-26
-5.6743512736931e-26
-8.8327890335461e-26
-1.2815535720745e-25
-1.7200482123339e-25
-2.1050101493395e-25
-2.2793536011623e-25
-2.0222177382175e-25
-1.0658679790048e-25
8.6734605572004e-26
4.0108211492556e-25
8.4915684281218e-25
1.4274417354363e-24
2.1128374709435e-24
2.8627728031163e-24
3.6192890563603e-24
4.3166052269376e-24
4.8907433411705e-24
5.2892239510857e-24
5.4788043838212e-24
5.4497286504387e-24
5.2158222483511e-24
4.8107322029319e-24
4.2814124438693e-24
3.6803970424881e-24
3.0584259351293e-24
2.4586520823918e-24
1.9131132235617e-24
1.4415694687176e-24
1.0523358096871e-24
7.4446008905667e-25
5.1052620982463e-25
3.3945824600528e-25
2.18893433133e-25
1.3690850437771e-25
8.3069545462842e-26
4.8901280916658e-26
2.7932589770514e-26
1.5482950075364e-26
8.3287724306175e-27
4.3483168307664e-27
2.2034224522062e-27
1.0837521609376e-27
5.1740776057017e-28
2.3978270616605e-28
1.078678583506e-28
4.7104129812428e-29
1.9967246688475e-29
8.2160903775586e-30
3.2816445215803e-30
1.2722851112639e-30
4.7876995413851e-31
1.7486276443634e-31
6.1982579828675e-32
2.1321260090894e-32
7.1169037037551e-33
2.3049592973916e-33
7.2424081822348e-34
2.2074881989159e-34
6.5260709818198e-35
1.8710250775961e-35
5.2013018233629e-36
1.4017576223023e-36
3.6616709889031e-37
9.269180971419e-38
2.273326970272e-38
5.4005276815918e-39
1.2423716394645e-39
2.7668578647974e-40
5.9636527123096e-41
1.5546057840811e-41
0
0
0
0
0
1.0458924548861e-43
-7.6191700813148e-41
-4.0819983095964e-39
-1.0589647775304e-37
-1.8057486451728e-36
-2.2848286749975e-35
-2.2907475665091e-34
-1.8964494456296e-33
-1.3336788850898e-32
-8.1335393522499e-32
-4.3697176584859e-31
-2.0938072195123e-30
-9.0375317534557e-30
-3.5427594561842e-29
-1.2699124778823e-28
-4.1864837928196e-28
-1.2755745428937e-27
-3.6072996192027e-27
-9.5031970822033e-27
-2.3396403221056e-26
-5.397816887534e-26
-1.1698002855179e-25
-2.3862436014872e-25
-4.5895407030601e-25
-8.3343981538149e-25
-1.4304703933135e-24
-2.3220125554318e-24
-3.5654402629506e-24
-5.176689864056e-24
-7.0984164582099e-24
-9.1708820842814e-24
-1.1116362227987e-23
-1.2548116779175e-23
-1.3011163234534e-23
-1.2054276590926e-23
-9.3226216705489e-24
-4.6514021093103e-24
1.8635855606307e-24
9.840155727291e-24
1.8640820612443e-23
2.7458705319831e-23
3.544170693024e-23
4.1828037155721e-23
4.6063481985181e-23
4.7876068494975e-23
4.7295371873517e-23
4.461763129468e-23
4.0329998662819e-23
3.5014482728756e-23
2.9253242430911e-23
2.3552591258555e-23
1.829556068094e-23
1.3724753726646e-23
9.9506865591754e-24
6.9770784253974e-24
4.7337465439343e-24
3.1092170474348e-24
1.977821502e-24
1.2188915407119e-24
7.2797620178692e-25
4.2146252172215e-25
2.3658732305956e-25
1.2879622082411e-25
6.800973103933e-26
3.4838725568976e-26
1.7315474485024e-26
8.3509620423438e-27
3.9084949074991e-27
1.7753615480685e-27
7.8269805965013e-28
3.3492750774755e-28
1.3911327916753e-28
5.6085811966608e-29
2.1948407733034e-29
8.3370256087918e-30
3.0737147279971e-30
1.0998671081846e-30
3.8195728099428e-31
1.2872258462918e-31
4.209410717496e-32
1.3355783722746e-32
4.111000847763e-33
1.2274336672005e-33
3.5543189751076e-34
9.9804846223654e-35
2.7171014023613e-35
7.1702476618037e-36
1.8337681627108e-36
4.5439866393348e-37
1.0906982781704e-37
2.5353137643591e-38
5.7055093056731e-39
1.2426820743565e-39
2.6187051782844e-40
6.6340717965226e-41
0
0
0
0
0
2.7810532435086e-42
-9.0615268475563e-40
-5.0095093001535e-38
-1.3036262656764e-36
-2.2157067509329e-35
-2.7879602595905e-34
-2.7768950087956e-33
-2.2829284270557e-32
-1.5941023649862e-31
-9.6532641197917e-31
-5.1503461544494e-30
-2.4512908859135e-29
-1.0512099255477e-28
-4.0952872244121e-28
-1.4593336941676e-27
-4.7842807219692e-27
-1.450181090628e-26
-4.0815696014972e-26
-1.0706384537771e-25
-2.625877695951e-25
-6.0388026598349e-25
-1.3054064168582e-24
-2.6582408375674e-24
-5.1086236500542e-24
-9.2802633677373e-24
-1.5956191445682e-23
-2.5992755628966e-23
-4.0145416124741e-23
-5.88072118012e-23
-8.1694968560284e-23
-1.0755714172638e-22
-1.3400563871373e-22
-1.5757516290713e-22
-1.7407640518859e-22
-1.7923579905643e-22
-1.6952276909838e-22
-1.4298575032756e-22
-9.9882368615017e-23
-4.2916740998587e-23
2.3014074770491e-23
9.1536714602774e-23
1.5583041026498e-22
2.0973626885373e-22
2.4870059663377e-22
2.7035971444567e-22
2.7467504543901e-22
2.6364222754916e-22
2.4069233460622e-22
2.0995371278085e-22
1.7554303384752e-22
1.4101344256414e-22
1.0902546488261e-22
8.124372679559e-23
5.8415543552285e-23
4.0563576301491e-23
2.7223134804011e-23
1.7668790173238e-23
1.1096193670712e-23
6.7458825661026e-24
3.9716720542027e-24
2.2653120603736e-24
1.2520862300718e-24
6.7082211774269e-25
3.4845658995832e-25
1.7552814464027e-25
8.5758801285511e-26
4.0645357961252e-26
1.8689599652786e-26
8.3385948764051e-27
3.610169351245e-27
1.5168176701357e-27
6.1848777492926e-28
2.4475603237295e-28
9.4003670071091e-29
3.503983450927e-29
1.2675762915131e-29
4.4500244366911e-30
1.5160056948077e-30
5.0113640052659e-31
1.6072630285375e-31
5.0008724977265e-32
1.5093053277385e-32
4.4179249222602e-33
1.2540058391883e-33
3.4509884313211e-34
9.2058816949815e-35
2.3799772404004e-35
5.9616367831782e-36
1.4465559548775e-36
3.3991113359743e-37
7.7326929437138e-38
1.7025394694568e-38
3.6267792019929e-39
7.472211980937e-40
1.8397460256611e-40
0
0
0
0
1.0244753218134e-53
3.6850543716913e-41
-7.0428433767139e-39
-4.0546309484579e-37
-1.0610412514402e-35
-1.7999993165105e-34
-2.2544605365186e-33
-2.2324388197717e-32
-1.8235533468292e-31
-1.2648093462437e-30
-7.6070227447523e-30
-4.0308650105823e-29
-1.9054195237925e-28
-8.1160422037372e-28
-3.1407235830457e-27
-1.1117943013544e-26
-3.6211417578939e-26
-1.0905473784378e-25
-3.0498425107247e-25
-7.9498083325236e-25
-1.9377193996345e-24
-4.4290951593989e-24
-9.5172896640837e-24
-1.9268004042853e-23
-3.6822714977345e-23
-6.6537879913863e-23
-1.1384318286986e-22
-1.8464321404815e-22
-2.8414414353259e-22
-4.1513533145582e-22
-5.7598061194976e-22
-7.588136116229e-22
-9.4858704146421e-22
-1.1235957601748e-21
-1.2578224082432e-21
-1.3249755289478e-21
-1.3035334902025e-21
-1.1816645808956e-21
-9.6074531822525e-22
-6.5643800775626e-22
-2.96871813097e-22
8.1773138063578e-23
4.4129190880103e-22
7.4770378808066e-22
9.7633915854323e-22
1.114761461535e-21
1.1631389083089e-21
1.1323277501957e-21
1.0404169583454e-21
9.0870122746335e-22
7.5798454031737e-22
6.0584504917006e-22
4.6513275364384e-22
3.4364016214105e-22
2.4466058777878e-22
1.6805549868504e-22
1.114737735407e-22
7.1458908438556e-23
4.4297772222055e-23
2.6569569108456e-23
1.5426418172919e-23
8.6735389150414e-24
4.724191186119e-24
2.4933770714805e-24
1.2755287913793e-24
6.3260402970697e-25
3.0422674150919e-25
1.4189234910107e-25
6.4191597119521e-26
2.8171256255452e-26
1.1994568517671e-26
4.9550236556726e-27
1.9861538793014e-27
7.7250408747337e-28
2.915516937912e-28
1.0677142046005e-28
3.7940989544362e-29
1.3081507816517e-29
4.3759838677364e-30
1.4201282810216e-30
4.4706493839463e-31
1.3650673500987e-31
4.0422140510056e-32
1.1606457390791e-32
3.2308784138392e-33
8.7176511648638e-34
2.2795312343311e-34
5.7751036448875e-35
1.4172117455791e-35
3.3678622726064e-36
7.7480693491545e-37
1.7251148679946e-37
3.7160712444626e-38
7.7417239182377e-39
1.5592459134833e-39
3.7308395280787e-40
0
0
0
0
2.8359642602635e-52
3.2436222379156e-40
-4.0053981474953e-38
-2.4305810515816e-36
-6.4119803718927e-35
-1.0869073941466e-33
-1.3559334260778e-32
-1.335425084811e-31
-1.0841274593885e-30
-7.4702498843735e-30
-4.4624892761913e-29
-2.3483321234875e-28
-1.1023494909935e-27
-4.6625070984108e-27
-1.7915700009073e-26
-6.2970718860673e-26
-2.0363279959556e-25
-6.0884710050799e-25
-1.6903319453054e-24
-4.3736966823655e-24
-1.0581475942357e-23
-2.4005033020775e-23
-5.1192691604928e-23
-1.0285522893541e-22
-1.9507720340594e-22
-3.4985887152735e-22
-5.941980832908e-22
-9.569083286955e-22
-1.4627127741357e-21
-2.1239197514195e-21
-2.9310579759043e-21
-3.8449032701864e-21
-4.7928978619962e-21
-5.6726231126895e-21
-6.363569396429e-21
-6.7461955161093e-21
-6.7248290098325e-21
-6.249178083895e-21
-5.3288415983611e-21
-4.0365250736059e-21
-2.4984158794016e-21
-8.7352910456071e-22
6.7325335887071e-22
1.9981882085385e-21
2.9997389517321e-21
3.6296490820031e-21
3.8928194105208e-21
3.8376286748771e-21
3.5403268631945e-21
3.0878308903249e-21
2.562703284273e-21
2.0327158270362e-21
1.5457693435031e-21
1.1295664898463e-21
7.9460963391974e-22
5.3886755439155e-22
3.5268518967797e-22
2.2298161524602e-22
1.3628760831568e-22
8.0578969467136e-23
4.6109682673975e-23
2.5548033820801e-23
1.3711243952961e-23
7.1299060848329e-24
3.5932755153062e-24
1.7554609932211e-24
8.315047750663e-25
3.8192409219489e-25
1.7013064106642e-25
7.350645700775e-26
3.0806402923302e-26
1.2524360315004e-26
4.9395516897117e-27
1.8899372097079e-27
7.0151620493189e-28
2.5261164407784e-28
8.8243219456318e-29
2.9902033538124e-29
9.8283944242928e-30
3.1332126699138e-30
9.6867345382285e-31
2.9039668843298e-31
8.4405513641371e-32
2.3781793232139e-32
6.4943279382942e-33
1.718510761785e-33
4.4055747050449e-34
1.0939062624858e-34
2.6300907921295e-35
6.1214037052071e-36
1.3787575981917e-36
3.0042666824924e-37
6.3306668902434e-38
1.2896054906146e-38
2.53854860059e-39
5.9017098076439e-40
0
0
0
0
3.8942823609538e-51
2.1330806113428e-39
-1.7653200207788e-37
-1.1490329365789e-35
-3.0649394696219e-34
-5.1975526572208e-33
-6.4623440755342e-32
-6.332448322626e-31
-5.1102631743951e-30
-3.4985440889286e-29
-2.0757938796913e-28
-1.0847594867065e-27
-5.0558768800657e-27
-2.1229877013783e-26
-8.0977318082409e-26
-2.8250060473075e-25
-9.0661992179833e-25
-2.6898223769947e-24
-7.4090428562821e-24
-1.9017259898025e-23
-4.5634077237819e-23
-1.0266615543447e-22
-2.171006094776e-22
-4.3248034599278e-22
-8.1322406665476e-22
-1.445974050342e-21
-2.4349612252295e-21
-3.8885579862787e-21
-5.895766636723e-21
-8.4944746209194e-21
-1.1637301411868e-20
-1.5164437768688e-20
-1.8794342464091e-20
-2.2141152035265e-20
-2.4761887604107e-20
-2.6228206118017e-20
-2.6209026381758e-20
-2.4544830154244e-20
-2.1294124540614e-20
-1.6738169846492e-20
-1.1340314200706e-20
-5.66813031338e-21
-2.9632557350039e-22
4.2869923944279e-21
7.7500268840139e-21
9.9498978239866e-21
1.0925608347815e-20
1.0858856148328e-20
1.0016705442379e-20
8.6917710146362e-21
7.1527264751479e-21
5.6124201019077e-21
4.2149054789488e-21
3.0380835049519e-21
2.1062860912238e-21
1.4069351719048e-21
9.0668682103819e-22
5.6434198392957e-22
3.39559177704e-22
1.9764697837577e-22
1.1135760780744e-22
6.0758636990653e-23
3.2115632614376e-23
1.645026933627e-23
8.1672818887345e-24
3.9310416111417e-24
1.8345226817105e-24
8.3017496493537e-25
3.6431910198361e-25
1.5505500265524e-25
6.4002886152438e-26
2.5623313259013e-26
9.9494506339554e-27
3.7470666282016e-27
1.3686954084182e-27
4.8487943490498e-28
1.6659205329637e-28
5.5506451930907e-29
1.7933667853874e-29
5.6181242887803e-30
1.706326672558e-30
5.023718941692e-31
1.4335601064671e-31
3.9642421793342e-32
1.0621244819572e-32
2.7565743786516e-33
6.9285408994e-34
1.6860901530209e-34
3.971605719916e-35
9.0524713298214e-36
1.995919082201e-36
4.2554140502814e-37
8.7700312699298e-38
1.7464117624792e-38
3.3588608939023e-39
7.5850615251265e-40
0
0
0
0
3.5360956364557e-50
1.1175736061013e-38
-6.2081061726216e-37
-4.4526571565443e-35
-1.2056187496437e-33
-2.048269267909e-32
-2.5399890562477e-31
-2.4773315482486e-30
-1.9877423497521e-29
-1.3521864324157e-28
-7.9688215558433e-28
-4.1351033015044e-27
-1.9133925683121e-26
-7.975105296631e-26
-3.0190267781266e-25
-1.0451355012536e-24
-3.3278390195242e-24
-9.794378759833e-24
-2.6758543701282e-23
-6.8112329426487e-23
-1.6206009473944e-22
-3.6145823962989e-22
-7.5766385226657e-22
-1.4959433540741e-21
-2.7877285181127e-21
-4.9120343844097e-21
-8.1966105358854e-21
-1.2970734027815e-20
-1.948740540109e-20
-2.782301814045e-20
-3.7774990858243e-20
-4.8787886917696e-20
-5.9940939669269e-20
-7.0020940211713e-20
-7.7684229094089e-20
-8.1684966329909e-20
-8.1122517337985e-20
-7.5647867000221e-20
-6.5573447315025e-20
-5.185269382605e-20
-3.5928818873608e-20
-1.9486438782815e-20
-4.1642345465783e-21
8.7054671282987e-21
1.8275038647173e-20
2.42475865412e-20
2.6831134801541e-20
2.6608329791685e-20
2.4364747679701e-20
2.0920425707894e-20
1.6998640545496e-20
1.3148807697549e-20
9.7232133578425e-21
6.8950859821389e-21
4.7003086148463e-21
3.0860815544129e-21
1.9546154970953e-21
1.1957510426747e-21
7.0728367760307e-22
4.048353852183e-22
2.2437607344369e-22
1.2047661595366e-22
6.269254356221e-23
3.1624851697184e-23
1.5467364465296e-23
7.3354515962253e-24
3.3735479264115e-24
1.5045571753212e-24
6.5072122556541e-25
2.729243795474e-25
1.1100528502387e-25
4.3781375056949e-26
1.6744340515184e-26
6.2096339468684e-27
2.2328882608094e-27
7.784868558584e-28
2.6314476801448e-28
8.6231880072165e-29
2.7392701420358e-29
8.4343752935856e-30
2.516931550956e-30
7.2783230785345e-31
2.0392237195552e-31
5.5347116097452e-32
1.4549066320225e-32
3.7032999189033e-33
9.1253573343301e-34
2.1762131789265e-34
5.0213023380336e-35
1.1206157299833e-35
2.4180951491592e-36
5.0431957979256e-37
1.0162055875381e-37
1.9774966276161e-38
3.7145864730845e-39
8.1449769647807e-40
0
0
0
0
2.3887039328657e-49
4.8576345983593e-38
-1.7543715028235e-36
-1.4507286955986e-34
-4.0083066587234e-33
-6.8348546987261e-32
-8.4607048325962e-31
-8.2174269104139e-30
-6.5573925367072e-29
-4.4330119993368e-28
-2.5950040225098e-27
-1.3371123688773e-26
-6.1421069669118e-26
-2.5409648473733e-25
-9.5457467850435e-25
-3.2789728343098e-24
-1.0358534771324e-23
-3.0243870040085e-23
-8.1960514916171e-23
-2.0692314959221e-22
-4.8827031466132e-22
-1.0799437065662e-21
-2.2445618328666e-21
-4.3936709053334e-21
-8.1162204626069e-21
-1.4173378149979e-20
-2.3434308934655e-20
-3.6733384826067e-20
-5.4647914249937e-20
-7.7225678003601e-20
-1.0372551096106e-19
-1.3245828987582e-19
-1.6081506543187e-19
-1.8553454343117e-19
-2.0319709856288e-19
-2.1085563267282e-19
-2.0665386760816e-19
-1.9026727738593e-19
-1.6304198764712e-19
-1.2779011794134e-19
-8.8295059976809e-20
-4.8652774082132e-20
-1.2604146149705e-20
1.7002486239808e-20
3.8526620159086e-20
5.1596562154946e-20
5.6941254116885e-20
5.6062027898671e-20
5.0836696999246e-20
4.3147641477951e-20
3.4602822400664e-20
2.6382524857516e-20
1.9207500504627e-20
1.3397289545977e-20
8.9764519826178e-21
5.7900242626346e-21
3.6019113829285e-21
2.1643084969155e-21
1.2576981142603e-21
7.0751014120049e-22
3.8558036458517e-22
2.0368515122098e-22
1.0433349673144e-22
5.1832364589606e-23
2.4976616993975e-23
1.1674205134979e-23
5.2925322468715e-24
2.327069203487e-24
9.9225944258944e-25
4.1027087424023e-25
1.6447767970048e-25
6.3929138979861e-26
2.4088771524567e-26
8.7988400038629e-27
3.1153266540359e-27
1.069107325234e-27
3.5558929442082e-28
1.1461781352766e-28
3.5800807918912e-29
1.0834914045326e-29
3.1768528489575e-30
9.0229025084983e-31
2.4820031460828e-31
6.6112703301669e-32
1.7049180432691e-32
4.255563696892e-33
1.027859854516e-33
2.4016577666434e-34
5.4269351231505e-35
1.185546827354e-35
2.5029127572265e-36
5.1046460485308e-37
1.005300006277e-37
1.910907792349e-38
3.5041901787625e-39
7.4573509018283e-40
0
0
0
0
1.2804943367937e-48
1.8010847439026e-37
-3.8871150695747e-36
-4.0410707245277e-34
-1.1477295158271e-32
-1.9689476998238e-31
-2.4357154439371e-30
-2.3571902698106e-29
-1.8713687071464e-28
-1.2574866687761e-27
-7.3125531723092e-27
-3.7416035703796e-26
-1.7062802304298e-25
-7.0064115768602e-25
-2.6122853301498e-24
-8.9050493150413e-24
-2.7917696777468e-23
-8.0893376803951e-23
-2.1756909427048e-22
-5.451858975479e-22
-1.2769070137588e-21
-2.8032886157589e-21
-5.7828691175511e-21
-1.1233739620274e-20
-2.0588716001893e-20
-3.5658892270874e-20
-5.8445227991038e-20
-9.0758168282044e-20
-1.3365840370473e-19
-1.8681167990716e-19
-2.4793324289461e-19
-3.1254493727359e-19
-3.7424099653419e-19
-4.2553794339524e-19
-4.5919135289714e-19
-4.6966656283689e-19
-4.5434598548944e-19
-4.1411122412732e-19
-3.5314547719328e-19
-2.7806596057442e-19
-1.9668852332414e-19
-1.167673442397e-19
-4.4958994192314e-20
1.3878660339197e-20
5.7040636374509e-20
8.4004374967739e-20
9.6162615382773e-20
9.6309201671267e-20
8.7974100791869e-20
7.4746416676752e-20
5.9726773813687e-20
4.5202972831597e-20
3.2567086087382e-20
2.2423634541418e-20
1.4802839502726e-20
9.3946316355382e-21
5.7454274601352e-21
3.3925718716926e-21
1.9373352800873e-21
1.0712860302693e-21
5.741739791673e-22
2.9846907438544e-22
1.5053528018799e-22
7.3677035359205e-23
3.4993087832907e-23
1.6126575538051e-23
7.2100306313867e-24
3.126655212556e-24
1.3148693394031e-24
5.3612110294071e-25
2.1190871703614e-25
8.1185654909485e-26
3.0144181575061e-26
1.0846230646848e-26
3.7815373191546e-27
1.2774329094421e-27
4.1807484183917e-28
1.3255005311835e-28
4.0707545447024e-29
1.2108544807026e-29
3.4879973395203e-30
9.728899776171e-31
2.6271277427705e-31
6.8666452546023e-32
1.7368374980815e-32
4.2502927995272e-33
1.0060184802738e-33
2.3024543169553e-34
5.093688821549e-35
1.0888700276194e-35
2.2483040090694e-36
4.4821796874221e-37
8.6235259376018e-38
1.6004189772913e-38
2.8636012114745e-39
5.911569776503e-40
0
0
0
0
5.6738493932392e-48
5.8128963531829e-37
-6.0146933651622e-36
-9.7209545142933e-34
-2.8684469951093e-32
-4.9665890173875e-31
-6.1488743394587e-30
-5.933932992898e-29
-4.6889579349936e-28
-3.1326980285153e-27
-1.8100399325557e-26
-9.1979580634596e-26
-4.164671507739e-25
-1.6977034095071e-24
-6.2836496070728e-24
-2.1266131513282e-23
-6.6201675056595e-23
-1.9052307406751e-22
-5.0909972099903e-22
-1.2677888482256e-21
-2.9516366330337e-21
-6.4422158211853e-21
-1.3212238589216e-20
-2.5512349420427e-20
-4.6461704542478e-20
-7.9917253097736e-20
-1.2999414393981e-19
-2.0017011157748e-19
-2.9204252890274e-19
-4.0399644695431e-19
-5.3022025691504e-19
-6.6057144921472e-19
-7.8164692573797e-19
-8.7902084485652e-19
-9.4009966628179e-19
-9.5668238978255e-19
-9.263758176679e-19
-8.5253158232023e-19
-7.430370333749e-19
-6.0866575634613e-19
-4.6156797938885e-19
-3.1405476823948e-19
-1.7750510359852e-19
-6.1239540189754e-20
2.8539405345377e-20
8.9423808267518e-20
1.2279735989131e-19
1.3309080534212e-19
1.2651542394923e-19
1.0966080197937e-19
8.8332646821772e-20
6.6859426037634e-20
4.790453274549e-20
3.2668384517399e-20
2.1296182449116e-20
1.3319124866226e-20
8.0166287608415e-21
4.6556884524136e-21
2.6144565447943e-21
1.4220262146283e-21
7.5003845807657e-22
3.839215711854e-22
1.9078989871573e-22
9.2058455114313e-23
4.3123695440453e-23
1.9606599442599e-23
8.6493483757226e-24
3.7009486427739e-24
1.5355109425574e-24
6.1756257293581e-25
2.407104907242e-25
9.0910176342162e-26
3.3263507416439e-26
1.1789891266536e-26
4.0475790789423e-27
1.3458217678615e-27
4.3336203141649e-28
1.351288285333e-28
4.0797855043845e-29
1.1925333567516e-29
3.3743571499607e-30
9.2412921378843e-31
2.4491691962956e-31
6.2800251579773e-32
1.5576175122163e-32
3.7359867510927e-33
8.6630477286502e-34
1.9414225185407e-34
4.2034269307257e-35
8.7893713386732e-36
1.7742143060608e-36
3.4558685210798e-37
6.4924023569389e-38
1.1757895080846e-38
2.0515987377607e-39
4.1060516417584e-40
0
0
0
0
2.1373776303579e-47
1.6582909950059e-36
-2.3965931987805e-36
-2.0264377290581e-33
-6.3147331316847e-32
-1.1084301170388e-30
-1.3760423228424e-29
-1.3255853211798e-28
-1.0432257017167e-27
-6.9325051265534e-27
-3.9809220019019e-26
-2.0095552125346e-25
-9.0362807823628e-25
-3.6579936274678e-24
-1.3446715611315e-23
-4.5210726909931e-23
-1.3988170131275e-22
-4.003268666874e-22
-1.0643887602912e-21
-2.638849662655e-21
-6.1191462986908e-21
-1.330555858101e-20
-2.7186568658057e-20
-5.2289558244574e-20
-9.4811113721789e-20
-1.6227297127588e-19
-2.6246420303952e-19
-4.015800343212e-19
-5.8176679813064e-19
-7.9867262427996e-19
-1.0399340284217e-18
-1.2855708957088e-18
-1.510805785456e-18
-1.6908663310537e-18
-1.8062457195663e-18
-1.8463665823966e-18
-1.8101931184637e-18
-1.7039673277241e-18
-1.5379168116858e-18
-1.3241880395016e-18
-1.076927721095e-18
-8.1337772834109e-19
-5.5382081064874e-19
-3.1910349658458e-19
-1.2644910325284e-19
1.4341170510165e-20
1.0241403746092e-19
1.4462629514974e-19
1.5245277745624e-19
1.3851356742241e-19
1.1389174537099e-19
8.6726831059534e-20
6.1974057597221e-20
4.1919710862824e-20
2.7009098639439e-20
1.6658166913952e-20
9.8746597747067e-21
5.6446972441767e-21
3.1199445542497e-21
1.6708122902049e-21
8.6815895656205e-22
4.3805450545743e-22
2.1471798650771e-22
1.0223758007775e-22
4.7275256312513e-23
2.1220463568211e-23
9.2420014470528e-24
3.9035857390036e-24
1.5983245232495e-24
6.341843613385e-25
2.4377637011374e-25
9.0760596869686e-26
3.2723528528937e-26
1.142417686434e-26
3.8614330604812e-27
1.2635552011408e-27
4.0024623868806e-28
1.2271874177603e-28
3.6416931842634e-29
1.0458163763531e-29
2.9060876897615e-30
7.8125748989034e-31
2.031568097413e-31
5.1089026214314e-32
1.2421602009006e-32
2.9191945317508e-33
6.6290655150666e-34
1.4541200859467e-34
3.0799800270472e-35
6.2968298544855e-36
1.2420371621103e-36
2.3625598065504e-37
4.3315956537529e-38
7.6505865272063e-39
1.3009806696142e-39
2.5227042063444e-40
0
0
0
0
6.9877365818225e-47
4.2319664495756e-36
2.4304127857283e-35
-3.6415418145162e-33
-1.2310872548557e-31
-2.2047130624705e-30
-2.7517871471433e-29
-2.6498807651272e-28
-2.078724097644e-27
-1.3747297925622e-26
-7.8489199192532e-26
-3.9372307059679e-25
-1.7589105290457e-24
-7.0742035571008e-24
-2.584422543844e-23
-8.6405351877451e-23
-2.6603518089687e-22
-7.5832079093777e-22
-2.0099535005493e-21
-4.9715081536755e-21
-1.1507923099339e-20
-2.498563759124e-20
-5.0974289061033e-20
-9.7866620185466e-20
-1.7706391118454e-19
-3.0227520835943e-19
-4.8753682318018e-19
-7.4387162226471e-19
-1.0752015277165e-18
-1.4751598382048e-18
-1.9268825614561e-18
-2.4059529551256e-18
-2.8828206509527e-18
-3.320206921022e-18
-3.6676201622203e-18
-3.863558412361e-18
-3.8536547307718e-18
-3.6176910660603e-18
-3.1856991860305e-18
-2.6291099549827e-18
-2.0326062172546e-18
-1.466121327329e-18
-9.7226925640986e-19
-5.6964848343466e-19
-2.6223198176203e-19
-4.6088336168271e-20
8.8376984168476e-20
1.5577579385037e-19
1.7401869873881e-19
1.6132064893143e-19
1.3327143393177e-19
1.011442893039e-19
7.1687594461305e-20
4.7946881955332e-20
3.048594719197e-20
1.8533072444567e-20
1.0822486553434e-20
6.0939989472607e-21
3.3189580754112e-21
1.7523304496074e-21
8.9826130101254e-22
4.4741827153469e-22
2.1659439921949e-22
1.0188607223519e-22
4.6549091731984e-23
2.0643111731082e-23
8.8804639942364e-24
3.7037521957147e-24
1.4968537515521e-24
5.8596944633908e-25
2.2212409107624e-25
8.1515993311819e-26
2.8956428466866e-26
9.9552061245171e-27
3.3122195999036e-27
1.0663955160625e-27
3.3221219585282e-28
1.0013261438696e-28
2.919823503917e-29
8.2358481386541e-30
2.2468283698183e-30
5.9274615672773e-31
1.5118884078974e-31
3.7275593428119e-32
8.8811938392508e-33
2.044251427885e-33
4.5443682157254e-34
9.7529185162124e-35
2.0199864323221e-35
4.0358114426841e-36
7.7746716145481e-37
1.443398002657e-37
2.5811324538004e-38
4.4432865094043e-39
7.3586700392758e-40
1.3815096174909e-40
0
0
0
0
2.0140400511313e-46
9.7543265419072e-36
1.1348893815712e-34
-5.5209162052539e-33
-2.1279391249598e-31
-3.9256822117929e-30
-4.9448459220656e-29
-4.7691210379862e-28
-3.7334300781368e-27
-2.4590614557682e-26
-1.3967231382589e-25
-6.9658722430084e-25
-3.0933212729559e-24
-1.2368838988301e-23
-4.4948287988346e-23
-1.4960850501973e-22
-4.5908519249068e-22
-1.3057669854681e-21
-3.4574122705097e-21
-8.5506704253833e-21
-1.9801452659238e-20
-4.3018006292744e-20
-8.7801896428144e-20
-1.6859815908275e-19
-3.0502470201305e-19
-5.2079972753656e-19
-8.4068509116094e-19
-1.2853784260645e-18
-1.8660609939487e-18
-2.5835288689755e-18
-3.436192010044e-18
-4.4276102431875e-18
-5.546311658864e-18
-6.7068696701477e-18
-7.7037811198154e-18
-8.2597004412689e-18
-8.1707174696172e-18
-7.4377640518717e-18
-6.2689111995267e-18
-4.9538344875638e-18
-3.7191038867915e-18
-2.6667153067731e-18
-1.806287007873e-18
-1.118352005395e-18
-5.9039890090376e-19
-2.1623478707312e-19
1.7639718944746e-20
1.3766291941422e-19
1.7781798323544e-19
1.706889537275e-19
1.4148388301058e-19
1.0651709549875e-19
7.4564700728706e-20
4.91739204617e-20
3.0811053038202e-20
1.8456960130877e-20
1.0623455853896e-20
5.8992678168722e-21
3.1707140360495e-21
1.6533093760837e-21
8.3755667146373e-22
4.1249048470567e-22
1.9749343428732e-22
9.1883966113012e-23
4.1512556465684e-23
1.8198706002645e-23