/*--------------------------------*- C++ -*----------------------------------*\
  =========                 |
  \\      /  F ield         | OpenFOAM: The Open Source CFD Toolbox
   \\    /   O peration     | Website:  https://openfoam.org
    \\  /    A nd           | Version:  7
     \\/     M anipulation  |
\*---------------------------------------------------------------------------*/
FoamFile
{
    version     2.0;
    format      ascii;
    class       volScalarField;
    location    "2.3";
    object      alpha.water;
}
// * * * * * * * * * * * * * * * * * * * * * * * * * * * * * * * * * * * * * //

dimensions      [0 0 0 0 0 0 0];

internalField   nonuniform List<scalar> 
6000
(
0
0
0
0
0
0
0
0
0
0
0
0
0
0
0
0
0
0
0
0
0
0
0
0
0
0
0
0
0
0
0
0
0
0
0
0
0
0
0
0
0
0
0
0
0
0
0
0
0
0
0
0
0
0
0
0
0
0
0
0
0
0
0
0
0
0
0
0
0
0
0
0
0
0
0
0
0
0
0
0
0
0
0
0
0
0
0
0
0
0
0
0
0
0
0
0
0
0
0
0
0
0
0
0
0
0
0
0
0
0
0
0
0
0
0
0
0
0
0
0
0
0
0
0
0
0
0
0
0
0
0
0
0
0
0
0
0
0
0
0
0
0
0
0
0
0
0
0
0
0
0
0
0
0
0
0
0
0
0
0
0
0
0
0
0
0
0
0
0
0
0
0
0
0
0
0
0
0
0
0
0
0
0
0
0
0
0
0
0
0
0
0
0
0
0
0
0
0
0
0
0
0
0
0
0
0
0
0
0
0
0
0
0
0
0
0
0
0
0
0
0
0
0
0
0
0
0
0
0
0
0
0
0
0
0
0
0
0
0
0
0
0
0
0
0
0
0
0
0
0
0
0
0
0
0
0
0
0
0
0
0
0
0
0
0
0
0
0
0
0
0
0
0
0
0
0
0
0
0
0
0
0
0
0
0
0
0
0
0
0
0
0
0
0
0
0
0
0
0
0
0
0
0
0
0
0
0
0
0
0
0
0
0
0
0
0
0
0
0
0
0
0
0
0
0
0
0
0
0
0
0
0
0
0
0
0
0
0
0
0
0
0
0
0
0
0
0
0
0
0
0
0
0
0
0
0
0
0
0
0
0
0
0
0
0
0
0
0
0
0
0
0
0
0
0
0
0
0
0
0
0
0
0
0
0
0
0
0
0
0
0
0
0
0
0
0
0
0
0
0
0
0
0
0
0
0
0
0
0
1.2250080732399e-63
9.0543348505043e-62
3.3257925661575e-60
8.1024169971182e-59
1.4725826154066e-57
2.1294966908688e-56
2.5517814899297e-55
2.6064456589424e-54
2.316367556892e-53
1.8194975920349e-52
1.2789548502003e-51
8.1258933186133e-51
4.7052495109946e-50
2.5003788515214e-49
1.2265982121398e-48
5.5830947027897e-48
2.368339556265e-47
9.3992613653691e-47
3.5019855068902e-46
1.2286609641973e-45
4.0703894935151e-45
1.2764306423113e-44
3.7973947685276e-44
1.0739491030028e-43
2.8926549818973e-43
7.4329799660137e-43
1.8249946388294e-42
4.2876464233973e-42
9.6519432694331e-42
2.0844258149894e-41
4.3234832540759e-41
8.6222871926198e-41
1.6549597483455e-40
3.0601021625522e-40
5.4556827405505e-40
9.3861022219727e-40
1.5594860794471e-39
2.5041175329009e-39
3.8886984038797e-39
5.8440315420995e-39
8.5044606107101e-39
1.1991116535172e-38
1.6390437598873e-38
2.1730353653541e-38
2.7957849911855e-38
3.4922584436485e-38
4.2371053071237e-38
4.9954859602242e-38
5.725431258897e-38
6.381586078817e-38
6.9198908899102e-38
7.3025187348783e-38
7.5023057524814e-38
7.5059302027137e-38
7.3153432162239e-38
6.9472389131141e-38
6.4307002088011e-38
5.8034835310332e-38
5.107569616626e-38
4.3847084653704e-38
3.6725623104592e-38
3.0019012431184e-38
2.3950512394749e-38
1.8655750658807e-38
1.418974648265e-38
1.0540986703042e-38
7.6490890927003e-39
5.4229258832231e-39
3.7568453455964e-39
2.5435823397758e-39
1.6833133551766e-39
1.0890349905708e-39
6.8886547617201e-40
4.2608665187299e-40
2.5774179950502e-40
1.5249128370034e-40
8.8252218725348e-41
4.9965647635529e-41
2.7677371416203e-41
1.5001186590349e-41
7.9563046015527e-42
4.1296894984418e-42
2.0978616437861e-42
1.0430870916154e-42
5.076651410706e-43
2.4186540762863e-43
1.1280656309901e-43
5.15088326639e-44
2.3026942905466e-44
1.0078982810627e-44
7.3675931945061e-45
0
0
0
0
0
0
0
-1.1313947112727e-53
-7.814583207227e-52
-2.6802673981888e-50
-6.08521514162e-49
-1.0285894589853e-47
-1.3803104058124e-46
-1.5312913322982e-45
-1.4439144800499e-44
-1.1807845979659e-43
-8.5021907963852e-43
-5.4539243691338e-42
-3.145517386644e-41
-1.6429025293162e-40
-7.8143651484747e-40
-3.3988490234311e-39
-1.3554919775705e-38
-4.9620707634504e-38
-1.6657404076118e-37
-5.1070249853187e-37
-1.4166053909285e-36
-3.4827868696379e-36
-7.2234147418248e-36
-1.0761534344746e-35
-8.344355826677e-37
7.556783371398e-35
3.8939669374219e-34
1.4241248004376e-33
4.4197915643371e-33
1.2310639817349e-32
3.1566449969457e-32
7.556435459879e-32
1.7035021891901e-31
3.6381333740326e-31
7.3925436224225e-31
1.4338876737132e-30
2.6618008533645e-30
4.7391982553758e-30
8.1074848979314e-30
1.3347300660608e-29
2.1174717812447e-29
3.2410416740664e-29
4.7914676968079e-29
6.8485988929612e-29
9.4728763746595e-29
1.269047632297e-28
1.6479135736754e-28
2.075749579442e-28
2.5380768629481e-28
3.0144833853451e-28
3.4799555667928e-28
3.9070417392529e-28
4.2685870288268e-28
4.5406498162583e-28
4.7051540162473e-28
4.7518646911593e-28
4.6793903277695e-28
4.4950866739611e-28
4.213925261816e-28
3.8565540793708e-28
3.4468866350271e-28
3.0095929825628e-28
2.5678338305117e-28
2.1414929653442e-28
1.7460486674015e-28
1.3921077587005e-28
1.0855279231403e-28
8.2798824991162e-29
6.1783867123229e-29
4.5106239343158e-29
3.2221276709188e-29
2.2522651020394e-29
1.5405862661937e-29
1.0312297876377e-29
6.7551647843746e-30
4.3304353431359e-30
2.7167083823132e-30
1.6678942331406e-30
1.0020842623195e-30
5.8917601834696e-31
3.3898841324108e-31
1.9086088051865e-31
1.0515604972298e-31
5.6693042682945e-32
2.9908618896965e-32
1.5439281539974e-32
7.7985730790508e-33
3.8543742392652e-33
1.8639606499685e-33
8.8197692342336e-34
4.0832764794572e-34
1.8496295721683e-34
8.1974396237188e-35
6.1062638003192e-35
0
0
0
0
0
0
-5.0189567397624e-52
-3.6054185471589e-50
-1.2866989193249e-48
-3.041602623917e-47
-5.3575916963289e-46
-7.5004945022592e-45
-8.6930608178489e-44
-8.5788823378467e-43
-7.3585829258104e-42
-5.5728203778718e-41
-3.7725714687311e-40
-2.3057477572659e-39
-1.2828137170721e-38
-6.5414845430266e-38
-3.075242632589e-37
-1.3394936448601e-36
-5.4291859398578e-36
-2.0553900009996e-35
-7.2920428595587e-35
-2.4314041646903e-34
-7.6388246293492e-34
-2.2663910494903e-33
-6.3627123312326e-33
-1.693174816298e-32
-4.2772599085246e-32
-1.0270430678022e-31
-2.3465398190622e-31
-5.1054986349844e-31
-1.0584285582836e-30
-2.0912690209077e-30
-3.9376341842151e-30
-7.0612721567334e-30
-1.2045166075825e-29
-1.9501523685359e-29
-2.9856794128827e-29
-4.2956802527372e-29
-5.7450344162275e-29
-6.9948404762457e-29
-7.4024246790061e-29
-5.9211263670423e-29
-1.0252489996953e-29
9.3072399922149e-29
2.7520636354363e-28
5.6290674360686e-28
9.8210329947666e-28
1.5537306826758e-27
2.2890521123645e-27
3.1852551783044e-27
4.2222355423549e-27
5.3614251022698e-27
6.5472478852935e-27
7.7113374481943e-27
8.7791154954882e-27
9.6778361602988e-27
1.03448654665e-26
1.0734876060783e-26
1.0824817808845e-26
1.0615932649977e-26
1.013262061269e-26
9.418510316461e-27
8.5305257144106e-27
7.5319905749257e-27
6.485843732543e-27
5.4488737400573e-27
4.4675826046672e-27
3.5759347515187e-27
2.7949162384524e-27
2.133577878199e-27
1.5910933694624e-27
1.1593305440568e-27
8.2548939108476e-28
5.7447177447312e-28
3.9078005417116e-28
2.5986635125341e-28
1.6895219264986e-28
1.0740171673367e-28
6.6761423914186e-29
4.0582302078385e-29
2.4125205843321e-29
1.4026597350056e-29
7.9763048018402e-30
4.4364759360972e-30
2.4136722106425e-30
1.2845088825113e-30
6.6869444777203e-31
3.4053485304486e-31
1.696479213709e-31
8.2679339425195e-32
3.9419744359794e-32
1.8386724331907e-32
8.3902061629858e-33
3.7455974239215e-33
1.6358775061209e-33
1.1885188334601e-33
0
0
0
0
0
1.6662028097936e-53
-1.6636325756777e-50
-1.2240037130042e-48
-4.3706566949193e-47
-1.0281773756118e-45
-1.7988826898971e-44
-2.4995728706454e-43
-2.874637752512e-42
-2.8149977158498e-41
-2.3963211809823e-40
-1.8015138001279e-39
-1.2110164986587e-38
-7.3525330503581e-38
-4.0652337803843e-37
-2.0611044172332e-36
-9.6389862410184e-36
-4.1789846545837e-35
-1.6870143315167e-34
-6.3655730431618e-34
-2.2526354019394e-33
-7.498526766503e-33
-2.3542214781283e-32
-6.9877448404539e-32
-1.9650343570563e-31
-5.2453839003199e-31
-1.3313881297528e-30
-3.2182672877314e-30
-7.4187180044562e-30
-1.6328943760626e-29
-3.4354172845696e-29
-6.9151289061403e-29
-1.3327977082467e-28
-2.4612092935447e-28
-4.356700198613e-28
-7.3945774437828e-28
-1.2034803510022e-27
-1.8777411568877e-27
-2.8070195558782e-27
-4.0159905129387e-27
-5.4889582364032e-27
-7.1462187425095e-27
-8.8211575655878e-27
-1.0244085698564e-26
-1.1039802783916e-26
-1.0745250206921e-26
-8.8509580298557e-27
-4.8654103504882e-27
1.6042768041521e-27
1.0767509181497e-26
2.25770860646e-26
3.6684231564202e-26
5.2434900022625e-26
6.8913584660543e-26
8.5031778187496e-26
9.9649048675852e-26
1.1170765285011e-25
1.2035847877761e-25
1.2505766747762e-25
1.256190857549e-25
1.2221643792708e-25
1.1533813455547e-25
1.0570598683069e-25
9.4173794847978e-26
8.1623240005842e-26
6.8872399069519e-26
5.6607631543339e-26
4.5343899514688e-26
3.5413101656143e-26
2.6975763712165e-26
2.0048963083399e-26
1.4542714859306e-26
1.0297867154233e-26
7.1202941094715e-27
4.8082553576667e-27
3.1717356203983e-27
2.0440861039632e-27
1.2872412449571e-27
7.9220719374117e-28
4.7652928918714e-28
2.8019556904071e-28
1.6106384951794e-28
9.0519089489964e-29
4.9742074949915e-29
2.6728958718583e-29
1.4045723932697e-29
7.2183279655422e-30
3.628131632053e-30
1.7836276467702e-30
8.5766610826262e-31
4.0340457480466e-31
1.8560303725976e-31
8.3533719066529e-32
3.677727058124e-32
1.5839602802756e-32
1.1239761799195e-32
0
0
0
0
0
6.0300281240639e-52
-2.7201547920343e-49
-2.0683528865483e-47
-7.4231869594036e-46
-1.744064366754e-44
-3.0403012115606e-43
-4.204598045705e-42
-4.8100436278341e-41
-4.6841654975245e-40
-3.9649299288136e-39
-2.9638319269231e-38
-1.981107033676e-37
-1.1961135444022e-36
-6.5773145580287e-36
-3.3170537671937e-35
-1.5432813061048e-34
-6.6577383902047e-34
-2.6748960654009e-33
-1.0047476776894e-32
-3.5403870096486e-32
-1.1738045254285e-31
-3.6716288445971e-31
-1.0861386436042e-30
-3.0451997032783e-30
-8.1077214713346e-30
-2.0535318980439e-29
-4.9558466601109e-29
-1.1412380586366e-28
-2.5109860287491e-28
-5.2848583665628e-28
-1.0651270024154e-27
-2.0575710284224e-27
-3.812844447262e-27
-6.7824677351937e-27
-1.1588309366161e-26
-1.9025522316564e-26
-3.0023519186264e-26
-4.5545153760138e-26
-6.6409684067329e-26
-9.3038638947815e-26
-1.2514532651189e-25
-1.6141526016326e-25
-1.9924973983348e-25
-2.3465938339488e-25
-2.623897849684e-25
-2.7633223423846e-25
-2.7021950132136e-25
-2.3853894695757e-25
-1.7752846825496e-25
-8.6074035541751e-26
3.3682624552366e-26
1.7618289919074e-25
3.328172376732e-25
4.9279670911332e-25
6.4440483451422e-25
7.764242616762e-25
8.7949645868636e-25
9.4718842618507e-25
9.7660337827884e-25
9.6846565686634e-25
9.2671063249256e-25
8.5769506476432e-25
7.6919562093517e-25
6.6937602060552e-25
5.658797898127e-25
4.6515683613359e-25
3.7207267745146e-25
2.8979329855726e-25
2.1989659569574e-25
1.6263815191954e-25
1.1729439751843e-25
8.2515967043823e-26
5.664233283257e-26
3.7949643548628e-26
2.4822501846206e-26
1.5854452269383e-26
9.8903478213789e-27
6.0270498039212e-27
3.5884065410209e-27
2.0876910147294e-27
1.1870161492223e-27
6.5966820652071e-28
3.5836102712261e-28
1.9032048471024e-28
9.8823196998832e-29
5.0173686740758e-29
2.4909691538897e-29
1.2093831043404e-29
5.7423192111585e-30
2.6666139641698e-30
1.2111579617346e-30
5.380525869425e-31
2.3380002334395e-31
9.9373377841509e-32
6.8967865490965e-32
0
0
0
0
1.6326515901919e-63
1.0875675509031e-50
-2.91843516329e-48
-2.3119671523788e-46
-8.3582618723583e-45
-1.9638618419663e-43
-3.4144062168723e-42
-4.7035157312126e-41
-5.3561890070466e-40
-5.1902174798561e-39
-4.3706305095303e-38
-3.2498916178622e-37
-2.1607704482476e-36
-1.2976431259459e-35
-7.0977874835171e-35
-3.5607113957035e-34
-1.6480270464301e-33
-7.0731241181688e-33
-2.8274272626704e-32
-1.0567688041308e-31
-3.7055631294731e-31
-1.2227155866411e-30
-3.8068361913122e-30
-1.1210378993285e-29
-3.1292425576086e-29
-8.2961247508812e-29
-2.0926776650341e-28
-5.0306347504539e-28
-1.1541829615703e-27
-2.5306817849057e-27
-5.3092995780565e-27
-1.0669630523127e-26
-2.0559005666491e-26
-3.8016983661162e-26
-6.7516986211668e-26
-1.1523902847524e-25
-1.8913899236633e-25
-2.9864163097857e-25
-4.5377835420118e-25
-6.6364031671457e-25
-9.341384273066e-25
-1.2652522144276e-24
-1.6481795312604e-24
-2.0630110757894e-24
-2.4776716122007e-24
-2.8488208517177e-24
-3.1251495928692e-24
-3.2530552251669e-24
-3.1841157589158e-24
-2.8832387560893e-24
-2.335997507772e-24
-1.5536115250308e-24
-5.7433952832519e-25
5.3931092997487e-25
1.7073294899788e-24
2.8418634340892e-24
3.858150026529e-24
4.6848368151331e-24
5.2719760052676e-24
5.5955041202227e-24
5.65775517733e-24
5.4843197000493e-24
5.1181797366634e-24
4.6124040870933e-24
4.0227393588968e-24
3.4012192918576e-24
2.7915293249437e-24
2.2264193065223e-24
1.7270575498079e-24
1.3039340059361e-24
9.5877724625617e-25
6.869394869316e-25
4.7979091942394e-25
3.268038061236e-25
2.1715588549514e-25
1.4081081049747e-25
8.9124293949988e-26
5.5075093071009e-26
3.3235788190591e-26
1.9589870198705e-26
1.1279945303485e-26
6.3459997382116e-27
3.4887672070235e-27
1.8744688244942e-27
9.8439365902626e-28
5.0534609662515e-28
2.5361747548563e-28
1.2444457867962e-28
5.9705143607854e-29
2.8010129257106e-29
1.2850236609933e-29
5.7652929445357e-30
2.5296716405675e-30
1.0855616572263e-30
4.5562162533278e-31
3.0962892672691e-31
0
0
0
0
6.0868427237769e-62
1.3032772209764e-49
-2.3040301683993e-47
-1.9206698185795e-45
-7.0087656629064e-44
-1.6484353240268e-42
-2.8601425258031e-41
-3.926315265243e-40
-4.4522071962125e-39
-4.2940720687319e-38
-3.5981258624208e-37
-2.6618229672225e-36
-1.7605760649536e-35
-1.0517522420626e-34
-5.7224425742055e-34
-2.8555639029741e-33
-1.3146736195074e-32
-5.6126623546053e-32
-2.2318298951947e-31
-8.2979595713382e-31
-2.8945303247609e-30
-9.5015344521815e-30
-2.9429962328302e-29
-8.622177102886e-29
-2.3945412876213e-28
-6.316290051405e-28
-1.5853041658845e-27
-3.7920991040878e-27
-8.6577641358693e-27
-1.8891918571592e-26
-3.944787570238e-26
-7.8910193034397e-26
-1.5137143217191e-25
-2.7870985551194e-25
-4.9296117971138e-25
-8.3818131819846e-25
-1.3708778499386e-24
-2.1578517791992e-24
-3.2702844159113e-24
-4.7732761277619e-24
-6.7108844915906e-24
-9.0879802258645e-24
-1.1851723072716e-23
-1.4876764522304e-23
-1.7958920637665e-23
-2.0821586120957e-23
-2.3137366335135e-23
-2.4564443516097e-23
-2.4793636219578e-23
-2.3598840457588e-23
-2.0881521826322e-23
-1.6699905244921e-23
-1.1275739472135e-23
-4.9756319122151e-24
1.7309712238586e-24
8.3302834679949e-24
1.4328953001562e-23
1.9313862824257e-23
2.2997121070165e-23
2.5239828782022e-23
2.6052703255805e-23
2.5576070823245e-23
2.4045135048293e-23
2.1748165791895e-23
1.8985217095853e-23
1.6033482071764e-23
1.3123026909844e-23
1.04240871888e-23
8.0449266821123e-24
6.0378022062489e-24
4.4099499168373e-24
3.1366040937806e-24
2.1736494174653e-24
1.4683273711631e-24
9.6723780805508e-25
6.2154442288486e-25
3.8973822013304e-25
2.3853589978736e-25
1.4253428284861e-25
8.3169357953411e-26
4.7399039425358e-26
2.6388396738622e-26
1.435361077783e-26
7.6291224772269e-27
3.9628501767371e-27
2.0119126971992e-27
9.9844155124041e-28
4.8438097492829e-28
2.2974014438437e-28
1.0653747925495e-28
4.8307002567894e-29
2.1418183561521e-29
9.2862257121838e-30
3.9372741742026e-30
1.6325420385099e-30
1.0872857349307e-30
0
0
0
0
1.1276958199824e-60
1.1672623986473e-48
-1.4211390051081e-46
-1.2635769070734e-44
-4.6648758958755e-43
-1.0992811534055e-41
-1.9044119149413e-40
-2.60612482648e-39
-2.9433768848819e-38
-2.8260471865898e-37
-2.3566173958317e-36
-1.7346292255789e-35
-1.1414038900641e-34
-6.7829179995922e-34
-3.6709378992829e-33
-1.822056642759e-32
-8.3435204332421e-32
-3.5428419374413e-31
-1.4011583629444e-30
-5.1812354146116e-30
-1.7974997197899e-29
-5.8682141152384e-29
-1.8076567727543e-28
-5.2668356694655e-28
-1.4546362012242e-27
-3.8158088486829e-27
-9.5241016341582e-27
-2.2655529220584e-26
-5.1437794154302e-26
-1.1161880299957e-25
-2.3178065037379e-25
-4.610974584922e-25
-8.7969321786047e-25
-1.6110114836728e-24
-2.8343996478447e-24
-4.7945271454246e-24
-7.8026256031933e-24
-1.2223448716732e-23
-1.8442071596588e-23
-2.6806917614087e-23
-3.7550081233322e-23
-5.0692758488055e-23
-6.5951129544928e-23
-8.2664251266278e-23
-9.9767934194822e-23
-1.1583513698062e-22
-1.2919334672836e-22
-1.3811389574177e-22
-1.4105037859361e-22
-1.3688784091319e-22
-1.2515590065283e-22
-1.0616074762929e-22
-8.100375847102e-23
-5.1475885050967e-23
-1.9842057944237e-23
1.1447599171892e-23
4.0068538624812e-23
6.4100475882541e-23
8.2228885553439e-23
9.3842159984162e-23
9.9019350231633e-23
9.8424105800125e-23
9.3135253944346e-23
8.4450953659649e-23
7.3701454540499e-23
6.2097125340506e-23
5.062666966918e-23
4.0008525836656e-23
3.0688866828858e-23
2.287374101034e-23
1.6580908089711e-23
1.1698108846782e-23
8.0376700375021e-24
5.3812461036869e-24
3.5121458287684e-24
2.2354849358075e-24
1.3881331386661e-24
8.4116828834679e-25
4.9755786059467e-25
2.8735333946352e-25
1.6206608875373e-25
8.9279615145238e-26
4.8047264693958e-26
2.5264175321171e-26
1.2981306266587e-26
6.518666128001e-27
3.1994150393714e-27
1.5349458552297e-27
7.1988058270824e-28
3.300673765875e-28
1.4796028751377e-28
6.4849997338355e-29
2.7791702096311e-29
1.1645962904412e-29
4.7720182207244e-30
3.1168269513085e-30
0
0
0
0
1.3854864461094e-59
8.3335589891799e-48
-7.0840739469244e-46
-6.8492881369113e-44
-2.5652974872469e-42
-6.0630693677438e-41
-1.049330688728e-39
-1.4319365636295e-38
-1.6111166907407e-37
-1.5401475094143e-36
-1.2782501563587e-35
-9.3620967116479e-35
-6.1287814323592e-34
-3.6230055907653e-33
-1.9503372220835e-32
-9.6282158698007e-32
-4.3849117572524e-31
-1.8516985582147e-30
-7.2827224517707e-30
-2.6779937855807e-29
-9.238393820614e-29
-2.9989302298682e-28
-9.1852308053091e-28
-2.6608359515816e-27
-7.3062973550481e-27
-1.9053940059069e-26
-4.7277964838197e-26
-1.1179650066732e-25
-2.5231340551716e-25
-5.4423563506004e-25
-1.1233364638133e-24
-2.2212872882695e-24
-4.212352982846e-24
-7.6680158105214e-24
-1.3410783844922e-23
-2.2551504323005e-23
-3.6487743649061e-23
-5.683690698764e-23
-8.5280075390347e-23
-1.2330394988907e-22
-1.7184985739309e-22
-2.309082818154e-22
-2.9912870959651e-22
-3.7353837808776e-22
-4.4946950993097e-22
-5.2077504972041e-22
-5.8036611468879e-22
-6.2103697605741e-22
-6.3647007879693e-22
-6.2225382651743e-22
-5.7671826469241e-22
-5.0141014501737e-22
-4.0108946163508e-22
-2.832221317956e-22
-1.5704606044754e-22
-3.2374862172103e-23
8.1646572597163e-23
1.7761908852759e-22
2.5062862860815e-22
2.9855601264981e-22
3.2195526460359e-22
3.2357846999059e-22
3.0767797953645e-22
2.7923483017508e-22
2.4324746408301e-22
2.0417664705178e-22
1.6559401501743e-22
1.3003554190163e-22
9.9026515406829e-23
7.3225500569833e-23
5.2630793788368e-23
3.6800335627877e-23
2.5049897390939e-23
1.6609774641677e-23
1.0733688614888e-23
6.7632419895322e-24
4.1567057473211e-24
2.4927474083532e-24
1.4590484204763e-24
8.33749262892e-25
4.6523626639281e-25
2.5355363853072e-25
1.3498933048888e-25
7.0214692150351e-26
3.5687222585951e-26
1.7725703751323e-26
8.6048508729971e-27
4.0829075594482e-27
1.8937122470373e-27
8.5862552634942e-28
3.8059385176837e-28
1.6493269395809e-28
6.9880170216515e-29
2.8947774822653e-29
1.1724627726038e-29
7.5138358396662e-30
0
0
0
0
1.2688897446537e-58
4.9396674676999e-47
-2.9018947592843e-45
-3.1419278470846e-43
-1.1979931416154e-41
-2.8432985555465e-40
-4.9189186501254e-39
-6.6958963137165e-38
-7.5068771817222e-37
-7.1459156529464e-36
-5.9032928432591e-35
-4.3024296333811e-34
-2.8021570342663e-33
-1.6477956134072e-32
-8.8229336362889e-32
-4.3319205321108e-31
-1.9619831181551e-30
-8.2390380810317e-30
-3.2221516515689e-29
-1.1781023668719e-28
-4.0407950730736e-28
-1.3040950694209e-27
-3.9708270461299e-27
-1.1434897925903e-26
-3.1211171410218e-26
-8.0904278080856e-26
-1.9952411773423e-25
-4.6891235997668e-25
-1.0517413940959e-24
-2.2544522791486e-24
-4.6241520297861e-24
-9.0861723573523e-24
-1.712160574701e-23
-3.0969920004768e-23
-5.382047352185e-23
-8.9931107705385e-23
-1.4458863782487e-22
-2.2381543487942e-22
-3.3374048634529e-22
-4.7960190935919e-22
-6.6443250079339e-22
-8.8758957595862e-22
-1.1434000610914e-21
-1.4202663404856e-21
-1.7005817244836e-21
-1.9617127993513e-21
-2.1781198817558e-21
-2.3244373565152e-21
-2.3790806264884e-21
-2.327756157687e-21
-2.166187649938e-21
-1.901467221903e-21
-1.5516853295288e-21
-1.1438334987442e-21
-7.1032714836384e-22
-2.8477360115689e-22
1.0225507167941e-22
4.2672176199554e-22
6.7336471050786e-22
8.3643470304509e-22
9.1899421588936e-22
9.3110024900264e-22
8.8734579426117e-22
8.0426664310181e-22
6.9804500335666e-22
5.827966191958e-22
4.6956002363977e-22
3.6595652891751e-22
2.7638467039773e-22
2.0256272910315e-22
1.4423221521542e-22
9.9868917811092e-23
6.7298474170593e-23
4.4164798671902e-23
2.8241714876116e-23
1.7606093690226e-23
1.0704756027641e-23
6.3502759992325e-24
3.6766272499532e-24
2.0781094828455e-24
1.1469737366969e-24
6.1829367759653e-25
3.2558904414963e-25
1.6751146917452e-25
8.421226468189e-26
4.1372305560439e-26
1.9864955274258e-26
9.322710388469e-27
4.276622777211e-27
1.9177243136091e-27
8.406510318304e-28
3.602496829741e-28
1.5092464954534e-28
6.1814836243614e-29
2.4751732800425e-29
1.5570111421642e-29
0
0
0
0
9.2431401102554e-58
2.500036394601e-46
-9.7661282884947e-45
-1.2428344859621e-42
-4.8460277013173e-41
-1.1566639883758e-39
-2.0016394552356e-38
-2.7190946149945e-37
-3.0382818363272e-36
-2.8804302879259e-35
-2.3687505099948e-34
-1.7180110702876e-33
-1.1132535422497e-32
-6.512118196501e-32
-3.4681174301895e-31
-1.6934744210573e-30
-7.6273495933603e-30
-3.1849516506058e-29
-1.2384863055911e-28
-4.5021527614515e-28
-1.5352193180168e-27
-4.9255480606599e-27
-1.4908839418425e-26
-4.2676511134023e-26
-1.1578088140221e-25
-2.9829434335323e-25
-7.3112629614486e-25
-1.7076113671223e-24
-3.8061309601772e-24
-8.1071922797092e-24
-1.6523183222703e-23
-3.2259127576998e-23
-6.0395478991302e-23
-1.0853432676746e-22
-1.8737912441576e-22
-3.1103619787578e-22
-4.9675778419915e-22
-7.6382632448515e-22
-1.1313462239253e-21
-1.6148885649935e-21
-2.2222233566027e-21
-2.9487273107892e-21
-3.7733837703789e-21
-4.6564795617558e-21
-5.5400431744767e-21
-6.3517019894131e-21
-7.0119910570137e-21
-7.444346853731e-21
-7.5862654835044e-21
-7.3996150333319e-21
-6.8780359036227e-21
-6.049800728601e-21
-4.9753588598628e-21
-3.7398596381297e-21
-2.4419691357739e-21
-1.1810145758661e-21
-4.4742012237672e-23
9.0028228405551e-22
1.6142642900755e-21
2.0852967751965e-21
2.3264106963744e-21
2.3696613045261e-21
2.2587033439973e-21
2.0413139310814e-21
1.7630363386526e-21
1.4626625582802e-21
1.1697820353405e-21
9.042111347074e-22
6.7685003742054e-22
4.9140730094714e-22
3.4646229977227e-22
2.3745392171607e-22
1.5833752388728e-22
1.02798290364e-22
6.5021516304219e-23
4.0089629883193e-23
2.4105378087231e-23
1.4140956697919e-23
8.0961518163811e-24
4.5252677579631e-24
2.4699460381697e-24
1.3167488253776e-24
6.8575704321929e-25
3.4894388990242e-25
1.7350547942614e-25
8.43115451934e-26
4.0041676044606e-26
1.8587298677181e-26
8.4337395693499e-27
3.7405856416658e-27
1.6217563740449e-27
6.8733030303291e-28
2.8476281774208e-28
1.1532945940991e-28
4.5659930744241e-29
2.8202020140404e-29
0
0
0
0
5.5779025604165e-57
1.1027288930876e-45
-2.6230433432527e-44
-4.2961416352524e-42
-1.7232240886724e-40
-4.1438980400499e-39
-7.1793367161019e-38
-9.7369823343311e-37
-1.084686898214e-35
-1.024336844042e-34
-8.3864923246876e-34
-6.0534786159766e-33
-3.9028294622191e-32
-2.2710771695561e-31
-1.2029971701645e-30
-5.8419920526679e-30
-2.6165385450251e-29
-1.0864104407031e-28
-4.2004072749663e-28
-1.5181157955298e-27
-5.1465706076814e-27
-1.641517603704e-26
-4.9392453189865e-26
-1.4054481409039e-25
-3.7901447910315e-25
-9.7060107668188e-25
-2.3645472843565e-24
-5.4889109747536e-24
-1.215912090756e-23
-2.5738749257551e-23
-5.2129476270377e-23
-1.011313038589e-22
-1.88125477181e-22
-3.3587939131468e-22
-5.7606222500142e-22
-9.4983090171956e-22
-1.5066742793814e-21
-2.3006938295917e-21
-3.3837562410296e-21
-4.7955365331406e-21
-6.551342987936e-21
-8.6296135368953e-21
-1.0961815525407e-20
-1.3427832694439e-20
-1.5859509185332e-20
-1.8053746812366e-20
-1.9794591181401e-20
-2.0881531125217e-20
-2.1159370395757e-20
-2.0544084099161e-20
-1.9039400921134e-20
-1.6740461495839e-20
-1.3823431940265e-20
-1.0522777051265e-20
-7.1003240368399e-21
-3.8117067893939e-21
-8.759805136082e-22
1.5468231715996e-21
3.3673388219478e-21
4.5671334895917e-21
5.1891485041831e-21
5.3213935352863e-21
5.0776530274856e-21
4.5787948059531e-21
3.9374338952581e-21
3.2475091493456e-21
2.579106581988e-21
1.9778772260831e-21
1.4677974580616e-21
1.0558275746203e-21
7.3716195665797e-22
5.0010105770687e-22
3.2997717179925e-22
2.1192827393596e-22
1.3257848588983e-22
8.0834550216049e-23
4.8060391605493e-23
2.7876621160575e-23
1.5780636360609e-23
8.7213694809032e-24
4.7069798409826e-24
2.4814108465885e-24
1.2780165199461e-24
6.4316451227697e-25
3.1630602372212e-25
1.5203101077316e-25
7.1420888060418e-26
3.2794943587951e-26
1.4719402053631e-26
6.4577670475345e-27
2.769403456816e-27
1.1609162235203e-27
4.7568853073462e-28
1.9052228541222e-28
7.4586899086525e-29
4.5245370670391e-29
0
0
0
0
2.8683100614239e-56
4.3056406536445e-45
-4.9994253327196e-44
-1.3095574676759e-41
-5.4473328205071e-40
-1.32281021913e-38
-2.2967595859769e-37
-3.1117165307536e-36
-3.4570293828832e-35
-3.2527013108238e-34
-2.6516628875688e-33
-1.9050236852218e-32
-1.2220977695805e-31
-7.0745166819261e-31
-3.7273349455493e-30
-1.8001571837287e-29
-8.0177246017845e-29
-3.3102504000637e-28
-1.272557253167e-27
-4.5729064266093e-27
-1.5413262688219e-26
-4.8876867685928e-26
-1.4621591225314e-25
-4.136395111124e-25
-1.1090053526213e-24
-2.823487899964e-24
-6.8384060728737e-24
-1.5781398944303e-23
-3.4753584012758e-23
-7.3131156515678e-23
-1.4722726141981e-22
-2.8388650185847e-22
-5.2482814103097e-22
-9.3113139530822e-22
-1.586700260158e-21
-2.5989762872714e-21
-4.0948019300794e-21
-6.2094531474249e-21
-9.0677117631394e-21
-1.275753632214e-20
-1.7299235195766e-20
-2.2615526606118e-20
-2.8509693128191e-20
-3.4659356062091e-20
-4.0631631889607e-20
-4.5921592665427e-20
-5.0010761447927e-20
-5.2437153850117e-20
-5.2864648909534e-20
-5.1138437243247e-20
-4.7315397384307e-20
-4.1663021104998e-20
-3.46267287537e-20
-2.6771537783417e-20
-1.870866445099e-20
-1.1019840383028e-20
-4.1916516254809e-21
1.4305950735533e-21
5.6643151922587e-21
8.4860966346243e-21
1.0007215371165e-20
1.0435312883798e-20
1.0030589372902e-20
9.0643254330917e-21
7.7855953454189e-21
6.3993370758784e-21
5.0562225309903e-21
3.8526175500068e-21
2.8376614267856e-21
2.0241647408337e-21
1.4004264524189e-21
9.4089490837429e-22
6.1453005230346e-22
3.9053279581595e-22
2.4167068801311e-22
1.4572657108933e-22
8.5676134471705e-23
4.9137256473384e-23
2.7503231315737e-23
1.5029369164617e-23
8.0207906191418e-24
4.1814136846466e-24
2.129835383574e-24
1.06011517389e-24
5.1569587790253e-25
2.4518972072522e-25
1.1394641874765e-25
5.1760752490264e-26
2.2982941879607e-26
9.9750103384152e-27
4.2317194648609e-27
1.754712900657e-27
7.111622505501e-28
2.8170273166512e-28
1.090582491607e-28
6.4986283468879e-29
0
0
0
0
1.2829588622139e-55
1.5065296823033e-44
-2.5702981513565e-44
-3.5383245530648e-41
-1.5438220265136e-39
-3.7970281457335e-38
-6.6154275738978e-37
-8.9594786884603e-36
-9.9308492238986e-35
-9.3120191402359e-34
-7.5601394899766e-33
-5.40654615105e-32
-3.451364791783e-31
-1.9876690753303e-30
-1.0416758154245e-29
-5.003525795922e-29
-2.2162001351007e-28
-9.0988079090343e-28
-3.4781768942069e-27
-1.2428304000154e-26
-4.1654511824456e-26
-1.3134936731192e-25
-3.9074219491418e-25
-1.0992720739902e-24
-2.9310349340457e-24
-7.421503570178e-24
-1.7876779192334e-23
-4.1030916637119e-23
-8.9865030438361e-23
-1.8806271300729e-22
-3.7650433185057e-22
-7.2188586779131e-22
-1.3268808477505e-21
-2.3402111047062e-21
-3.9636689819368e-21
-6.4518736347923e-21
-1.0099901367046e-20
-1.5214567611635e-20
-2.2067586198547e-20
-3.0833164531259e-20
-4.1518156474402e-20
-5.3898248955935e-20
-6.747687303425e-20
-8.1482816134242e-20
-9.4916996000056e-20
-1.0664916478622e-19
-1.1555363965405e-19
-1.2066269735753e-19
-1.2131016358722e-19
-1.172379431525e-19
-1.0864487144738e-19
-9.6168550916397e-20
-8.0803813463217e-20
-6.3773001607695e-20
-4.6371011161742e-20
-2.9810826019714e-20
-1.509314946154e-20
-2.9176462214223e-21
6.3552574928736e-21
1.2692381339504e-20
1.6334290481643e-20
1.7714813724025e-20
1.7370532185777e-20
1.5856051870288e-20
1.3676856793542e-20
1.1245952822708e-20
8.8648706099052e-21
6.7251662763491e-21
4.9240443913193e-21
3.4871877969484e-21
2.39286554046e-21
1.5932112429897e-21
1.0305442664049e-21
6.4826211689409e-22
3.9693426215219e-22
2.3676287799083e-22
1.3766847589158e-22
7.807995107669e-23
4.3216457077486e-23
2.3353304600373e-23
1.2325052859643e-23
6.3546469439574e-24
3.2014681177902e-24
1.5762680523474e-24
7.5854355946115e-25
3.5680322342944e-25
1.6405452296288e-25
7.3732777117363e-26
3.2392084243296e-26
1.3909445367897e-26
5.8378893517975e-27
2.3947324461805e-27
9.6004566493706e-28
3.761306710708e-28
1.4400443408623e-28
8.43053403801e-29
0
0
0
0
5.0708165080586e-55
4.7706596931786e-44
3.0935840454719e-43
-8.4810573591616e-41
-3.9472335877329e-39
-9.8710679159183e-38
-1.7285090696497e-36
-2.3420824129011e-35
-2.5913366169543e-34
-2.4223506646295e-33
-1.9589723326127e-32
-1.3947336701179e-31
-8.8608250436715e-31
-5.0772107467867e-30
-2.6468569349549e-29
-1.2645469413937e-28
-5.5704899642571e-28
-2.2744522477176e-27
-8.6466865568812e-27
-3.0727489032972e-26
-1.0242768860577e-25
-3.2125910688298e-25
-9.506661769759e-25
-2.6606887451251e-24
-7.0583148467759e-24
-1.778273626618e-23
-4.2623608943064e-23
-9.7351634646873e-23
-2.121767390384e-22
-4.4184968911562e-22
-8.8020141324333e-22
-1.679123631688e-21
-3.0704231675646e-21
-5.3866044906241e-21
-9.0737913059486e-21
-1.4687521851889e-20
-2.286131685978e-20
-3.4240097782397e-20
-4.9376589004101e-20
-6.8598442848868e-20
-9.1865077892612e-20
-1.1864289764286e-19
-1.4783206028101e-19
-1.7777461044675e-19
-2.0636183858106e-19
-2.3123987423532e-19
-2.5009056035867e-19
-2.6094479962007e-19
-2.6247327730441e-19
-2.5419899356491e-19
-2.3658880060381e-19
-2.1100468474588e-19
-1.7952386671475e-19
-1.4466233415171e-19
-1.0905277115282e-19
-7.5131961499236e-20
-4.4885405640112e-20
-1.9681593469577e-20