/*--------------------------------*- C++ -*----------------------------------*\
  =========                 |
  \\      /  F ield         | OpenFOAM: The Open Source CFD Toolbox
   \\    /   O peration     | Website:  https://openfoam.org
    \\  /    A nd           | Version:  7
     \\/     M anipulation  |
\*---------------------------------------------------------------------------*/
FoamFile
{
    version     2.0;
    format      ascii;
    class       volScalarField;
    location    "2.6";
    object      alpha.water;
}
// * * * * * * * * * * * * * * * * * * * * * * * * * * * * * * * * * * * * * //

dimensions      [0 0 0 0 0 0 0];

internalField   nonuniform List<scalar> 
6000
(
0
0
0
0
0
0
0
0
0
0
0
0
0
0
0
0
0
0
0
0
0
0
0
0
0
0
0
0
0
0
0
0
0
0
0
0
0
0
0
0
0
0
0
0
0
0
0
0
0
0
0
0
0
0
0
0
0
0
0
0
0
0
0
0
0
0
0
0
0
0
0
0
0
0
0
0
0
0
0
0
0
0
0
0
0
0
0
0
0
0
0
0
0
0
0
0
0
0
0
0
0
0
0
0
0
0
0
0
0
0
0
0
0
0
0
0
0
0
0
0
0
0
0
0
0
0
0
0
0
0
0
0
0
0
0
0
0
0
0
0
0
0
0
0
0
0
0
0
0
0
0
0
0
0
0
0
0
0
0
0
0
0
0
0
0
0
0
0
0
0
0
0
0
0
0
0
0
0
0
0
0
0
0
0
0
0
0
0
0
0
0
0
0
0
0
0
0
0
0
0
0
0
0
0
0
0
0
0
0
0
0
0
0
0
0
0
0
0
0
0
0
0
0
0
0
0
0
0
0
0
0
0
0
0
0
0
0
0
0
0
0
0
0
0
0
0
0
0
0
0
0
0
0
0
0
0
0
0
0
0
0
0
0
0
0
0
0
0
0
0
0
0
0
0
0
0
0
0
0
0
0
0
0
0
0
0
0
0
0
0
0
0
0
0
0
0
0
0
0
0
0
0
0
0
0
0
0
0
0
0
0
0
0
0
0
0
0
0
0
0
0
0
0
0
0
0
0
0
0
0
0
0
0
0
0
0
0
0
0
0
0
0
0
0
0
0
0
0
0
0
0
0
0
0
0
0
0
0
0
0
0
0
0
0
0
0
0
0
0
0
0
0
0
0
0
0
0
0
0
0
0
0
0
0
0
0
0
0
0
0
0
0
0
0
0
0
0
0
0
0
0
0
0
0
0
0
0
0
0
1.5426713699086e-68
1.2918431052996e-66
5.3630040452218e-65
1.478057545968e-63
3.0410394870907e-62
4.9814065844465e-61
6.7661761981383e-60
7.839005300423e-59
7.9075414624761e-58
7.0550897138351e-57
5.6365371538358e-56
4.0732699314501e-55
2.6846225734392e-54
1.6249542439848e-53
9.0862594330767e-53
4.7176397512231e-52
2.2844538932714e-51
1.0357281380724e-50
4.4117170418528e-50
1.7709183870049e-49
6.717556872521e-49
2.4139069830521e-48
8.2356849723087e-48
2.6732202769028e-47
8.2705595789005e-47
2.4431056157103e-46
6.9014391367473e-46
1.8670558224452e-45
4.843714320742e-45
1.2065488514576e-44
2.8890826504151e-44
6.6572326930567e-44
1.4776955162689e-43
3.1626062257528e-43
6.5321985258326e-43
1.3031379574388e-42
2.512922540301e-42
4.6875652175401e-42
8.4644439826214e-42
1.4805372153265e-41
2.510045915799e-41
4.1270802816057e-41
6.5848692764482e-41
1.0200614648966e-40
1.5349734675099e-40
2.2448132919163e-40
3.1920103178111e-40
4.4151287895175e-40
5.9429070850751e-40
7.7876099057754e-40
9.938589552137e-40
1.2357159618791e-39
1.4973976710951e-39
1.7689888942189e-39
2.0380794767449e-39
2.2906440290754e-39
2.5122449893381e-39
2.6894037970682e-39
2.810972029314e-39
2.8692978374313e-39
2.8610210586489e-39
2.7873791219184e-39
2.6539917221998e-39
2.4701705363149e-39
2.2478615798951e-39
2.0003926127618e-39
1.741198084452e-39
1.4826871839867e-39
1.2353703992676e-39
1.0073163241261e-39
8.0394698833851e-40
6.2813181168074e-40
4.8050984128593e-40
3.5995277165834e-40
2.64083756343e-40
1.8977949470481e-40
1.3360560037645e-40
9.2155603173033e-41
6.2286267933032e-41
4.1255877278128e-41
2.6782419498992e-41
1.7042356801021e-41
1.0630872186849e-41
6.5014324293109e-42
3.898430088189e-42
2.2921802591169e-42
1.3216673281912e-42
7.4738468671876e-43
4.1452197803773e-43
2.2550858201895e-43
2.4742403608738e-43
0
0
0
0
0
0
0
-1.4280208897548e-58
-1.1234290746609e-56
-4.3929199745169e-55
-1.1382340807432e-53
-2.1981592560572e-52
-3.3742717534215e-51
-4.2877142869253e-50
-4.63787384526e-49
-4.3579726981251e-48
-3.6125262416423e-47
-2.6737231857077e-46
-1.7838412448163e-45
-1.0811455132799e-44
-5.989960695756e-44
-3.0491688364087e-43
-1.4319049024179e-42
-6.2225108062284e-42
-2.5076379635415e-41
-9.3817119098693e-41
-3.2577709989737e-40
-1.0478347552782e-39
-3.1064644523219e-39
-8.403799157361e-39
-2.0317999415504e-38
-4.1812127507569e-38
-6.2703326149671e-38
-9.0679570317047e-39
4.2042923187947e-37
2.2207494661256e-36
8.2877978993281e-36
2.6307263110403e-35
7.5201294665611e-35
1.9862247175528e-34
4.9154138152569e-34
1.149661560203e-33
2.556131606736e-33
5.4251863497585e-33
1.1026473844072e-32
2.1514407324716e-32
4.038046447923e-32
7.3029130461736e-32
1.2744722097047e-31
2.1489138697754e-31
3.504640902865e-31
5.5339463936168e-31
8.4680519274151e-31
1.2567414944761e-30
1.8103023417318e-30
2.5328198503889e-30
3.4442189822819e-30
4.5548951894153e-30
5.8616513871548e-30
7.3443774378801e-30
8.9641869700741e-30
1.0663615197307e-29
1.2369225204527e-29
1.3996602837241e-29
1.5457307926856e-29
1.6666976525629e-29
1.7553517528795e-29
1.8064276799407e-29
1.8171173075916e-29
1.7873118455162e-29
1.7195459666283e-29
1.6186629701002e-29
1.4912595841692e-29
1.3449960850054e-29
1.1878681725931e-29
1.0275313933971e-29
8.7074991322134e-30
7.2301429193233e-30
5.8834346158734e-30
4.6925962363906e-30
3.6690499309447e-30
2.8125801922952e-30
2.1140383170244e-30
1.5581770243946e-30
1.1262897783173e-30
7.9843739208858e-31
5.5515217766996e-31
3.7860156119838e-31
2.5326012123977e-31
1.6617926715328e-31
1.0695995414697e-31
6.7531476258181e-32
4.1825032593153e-32
2.5410549921658e-32
1.514401376907e-32
8.8535508845291e-33
5.0774207858359e-33
2.8563868525393e-33
1.5762956493052e-33
1.7800317934723e-33
0
0
0
0
0
0
-6.3348140111905e-57
-5.1656746274453e-55
-2.0942470253051e-53
-5.6281581217849e-52
-1.1279360344645e-50
-1.7980404531064e-49
-2.3747982036546e-48
-2.6729181276955e-47
-2.6170633494997e-46
-2.2642947012936e-45
-1.7527328125202e-44
-1.2260377649924e-43
-7.814035669411e-43
-4.5690709777213e-42
-2.4655104446729e-41
-1.2339521680849e-40
-5.7530448165375e-40
-2.508197296696e-39
-1.0260006155842e-38
-3.9495254295996e-38
-1.4344955830481e-37
-4.9275578467089e-37
-1.6041854814248e-36
-4.9588727016754e-36
-1.4579568213194e-35
-4.0830748666665e-35
-1.0906457669867e-34
-2.7818569314255e-34
-6.782207003168e-34
-1.5817991413845e-33
-3.5314990896079e-33
-7.5508343274513e-33
-1.5465516504455e-32
-3.0343019681969e-32
-5.7006576612738e-32
-1.02475107207e-31
-1.7600590840448e-31
-2.8816794601559e-31
-4.4807448617374e-31
-6.5762345360761e-31
-9.0145519314328e-31
-1.1315093996548e-30
-1.2457269560341e-30
-1.0617272182783e-30
-2.8818904700406e-31
1.5010508223604e-30
4.8829787655989e-30
1.0582869411405e-29
1.9444827451212e-29
3.2369397285183e-29
5.0217054013755e-29
7.368321027051e-29
1.0315805675945e-28
1.3859139452436e-28
1.793867032162e-28
2.2434841909138e-28
2.7170099382037e-28
3.1918817910362e-28
3.6424778025304e-28
4.0424343095746e-28
4.3672369129944e-28
4.5967250288648e-28
4.7171524348939e-28
4.7225136677153e-28
4.6149650001303e-28
4.4043142872661e-28
4.1066968584251e-28
3.7426679074609e-28
3.3350068641489e-28
2.9065390080625e-28
2.4782389400174e-28
2.0678035268865e-28
1.6887875749447e-28
1.3503029271783e-28
1.0572062963291e-28
8.1065214485264e-29
6.0886677872699e-29
4.4800526617566e-29
3.2297678831032e-29
2.2815804866197e-29
1.5795039535267e-29
1.0716819846871e-29
7.1270107929983e-30
4.6459838262659e-30
2.9689724660024e-30
1.8600279329738e-30
1.1424618338148e-30
6.8800998442654e-31
4.0625472633049e-31
2.3521811296041e-31
1.3354513751389e-31
7.4350721456585e-32
4.0593404991779e-32
4.4807074567648e-32
0
0
0
0
0
2.103043610905e-58
-2.3836813732394e-55
-1.9921266683762e-53
-8.0861472520105e-52
-2.1639217121616e-50
-4.3099729339064e-49
-6.822727138718e-48
-8.9458483040571e-47
-9.9952231221453e-46
-9.7156131138715e-45
-8.3466807233123e-44
-6.4168795291326e-43
-4.4592526389457e-42
-2.824381417287e-41
-1.6418013415734e-40
-8.8107784257365e-40
-4.3873864063461e-39
-2.0361386135685e-38
-8.8408361986767e-38
-3.6036424736733e-37
-1.3831357419515e-36
-5.0122719665202e-36
-1.7191060465505e-35
-5.5926303096624e-35
-1.7291432969554e-34
-5.0900600948378e-34
-1.428880557899e-33
-3.8308021702074e-33
-9.8216739274819e-33
-2.4110750145515e-32
-5.673390427161e-32
-1.2808881976958e-31
-2.7771574426383e-31
-5.7869480361972e-31
-1.1597171938481e-30
-2.2364259064725e-30
-4.1519569584136e-30
-7.423132540247e-30
-1.2783025328534e-29
-2.1202729943535e-29
-3.386621722111e-29
-5.206450017114e-29
-7.6972734099849e-29
-1.0928082174219e-28
-1.4866864760948e-28
-1.9315296996938e-28
-2.3838171956225e-28
-2.7700482496816e-28
-2.9829504525279e-28
-2.8821073990023e-28
-2.3006927133455e-28
-1.0592579347351e-28
1.0136954004854e-28
4.0561478316331e-28
8.1452972793231e-28
1.3273017466547e-27
1.9328832767624e-27
2.6094603657018e-27
3.3253537042276e-27
4.0413815141971e-27
4.7144524990351e-27
5.3019225326801e-27
5.766093390985e-27
6.0781913511377e-27
6.2212475416282e-27
6.1914918000362e-27
5.9981256784282e-27
5.6616042696967e-27
5.2107782686324e-27
4.6793881479128e-27
4.1024435650456e-27
3.512967770134e-27
2.939462055818e-27
2.4042830782693e-27
1.9229617018951e-27
1.5043551835668e-27
1.1514331840757e-27
8.6245790962962e-28
6.323244285448e-28
4.5386647046927e-28
3.1899049718125e-28
2.1956212634253e-28
1.480231250326e-28
9.77577365409e-29
6.3251994019668e-29
4.0100197633104e-29
2.4912180119991e-29
1.5167360367062e-29
9.0506163049068e-30
5.293586296676e-30
3.034985217394e-30
1.7057931944714e-30
9.3990828087181e-31
5.077591137371e-31
5.4823785651161e-31
0
0
0
0
0
8.6204264443665e-57
-4.4288058410239e-54
-3.827158164481e-52
-1.5623339844593e-50
-4.1783320399249e-49
-8.2971773505238e-48
-1.3080542610979e-46
-1.7070744689114e-45
-1.8978181581135e-44
-1.8352568428228e-43
-1.5684774745e-42
-1.199570328186e-41
-8.2931404774897e-41
-5.2259673258953e-40
-3.0226803752891e-39
-1.6142278762871e-38
-8.0000700776236e-38
-3.6957124010617e-37
-1.5975691540389e-36
-6.4843012997372e-36
-2.4787262687661e-35
-8.9482015966011e-35
-3.058052828596e-34
-9.9154651888669e-34
-3.0563770683369e-33
-8.9725176849927e-33
-2.5127724957169e-32
-6.7232461117711e-32
-1.7210412770672e-31
-4.220253657538e-31
-9.9248227228686e-31
-2.2407979514609e-30
-4.8617964744157e-30
-1.0145770222243e-29
-2.0380296017646e-29
-3.9434822601768e-29
-7.3546759082612e-29
-1.3228005381322e-28
-2.2954397903118e-28
-3.8444037908538e-28
-6.2156518748791e-28
-9.7025702244694e-28
-1.4622148301999e-27
-2.1269637866432e-27
-2.9848960757616e-27
-4.0380832683276e-27
-5.2597245926527e-27
-6.5838572000494e-27
-7.8976291867249e-27
-9.0387927804001e-27
-9.8008914222177e-27
-9.947752650084e-27
-9.2373768823513e-27
-7.4533441784907e-27
-4.4398412081807e-27
-1.3483667468383e-28
5.4047198963989e-27
1.1991223283115e-26
1.9311966014165e-26
2.6952802223877e-26
3.4437560135948e-26
4.1277876146087e-26
4.7026101632983e-26
5.1323311281494e-26
5.3935348674311e-26
5.4772056941654e-26
5.3887848559441e-26
5.1464911078539e-26
4.7782987614799e-26
4.318134415135e-26
3.8019030916395e-26
3.2638927190636e-26
2.7339612975548e-26
2.2357243872971e-26
1.7857735381726e-26
1.3938026423753e-26
1.0634189748413e-26
7.9337410465678e-27
5.7895970744596e-27
4.1335954781966e-27
2.8881378454393e-27
1.9751912977326e-27
1.3224644829308e-27
8.6699618701058e-28
5.5664292507921e-28
3.5004559944747e-28
2.1563426178885e-28
1.301392088853e-28
7.6956188155687e-29
4.4593108736317e-29
2.5323341673005e-29
1.4094195583001e-29
7.6888162664218e-30
4.1115883944836e-30
4.3475100431546e-30
0
0
0
0
2.0599171716656e-68
1.7612471823118e-55
-5.4062182186378e-53
-4.8680177290434e-51
-2.0028851011932e-49
-5.3601581918456e-48
-1.0622639771194e-46
-1.6691819505288e-45
-2.1697529618526e-44
-2.4017206404744e-43
-2.3119301749149e-42
-1.9665632051593e-41
-1.4968411277253e-40
-1.0298549046743e-39
-6.4584762851357e-39
-3.7176674811738e-38
-1.9759396262159e-37
-9.7466239211615e-37
-4.4816276212321e-36
-1.9284302033287e-35
-7.7919665536214e-35
-2.965434919875e-34
-1.0658868930106e-33
-3.6272616632977e-33
-1.1712569377055e-32
-3.5958519772198e-32
-1.0515260075384e-31
-2.9337946176603e-31
-7.821536861341e-31
-1.9953228089578e-30
-4.8769582606439e-30
-1.1434323166568e-29
-2.5743438511104e-29
-5.571188561687e-29
-1.1599754483897e-28
-2.325570808242e-28
-4.4928039593011e-28
-8.3696574798847e-28
-1.504400477092e-27
-2.6104514478206e-27
-4.374830977516e-27
-7.0837238689757e-27
-1.108507002089e-26
-1.6767527365691e-26
-2.4517650831727e-26
-3.4652226767474e-26
-4.7327308087736e-26
-6.2432036468287e-26
-7.9482784880382e-26
-9.7539730868869e-26
-1.1517145391173e-25
-1.3049143900119e-25
-1.4128221501493e-25
-1.4520852452649e-25
-1.4010252194745e-25
-1.2428529167435e-25
-9.6874606772241e-26
-5.8023124983494e-26
-9.0368296902101e-27
4.7659450930542e-26
1.0871700575126e-25
1.7019726935969e-25
2.2799750548106e-25
2.7830354289597e-25
3.1800037686417e-25
3.4498027121984e-25
3.5830790457278e-25
3.5822837198058e-25
3.4603065776863e-25
3.2380110708446e-25
2.9411465489178e-25
2.597146623429e-25
2.2322604997522e-25
1.8693367900168e-25
1.5264217429452e-25
1.2161809756661e-25
9.4603244520491e-26
7.1880318687071e-26
5.3369546067026e-26
3.873617275632e-26
2.7492897008866e-26
1.9086652112536e-26
1.2964500325999e-26
8.6178386064983e-27
5.607216585395e-27
3.5717738831259e-27
2.2278295518294e-27
1.3608443031736e-27
8.1418783482696e-28
4.77184601983e-28
2.7399654591559e-28
1.5415141720114e-28
8.4983909817031e-29
4.5914728351196e-29
2.4312492678073e-29
2.5200040526443e-29
0
0
0
0
8.6734370834735e-67
2.3912949781647e-54
-4.8641144020541e-52
-4.6068109886048e-50
-1.9139955724998e-48
-5.1303550376653e-47
-1.0152762508839e-45
-1.5908245122865e-44
-2.0604517765006e-43
-2.2714979136812e-42
-2.1771157016513e-41
-1.8435525836339e-40
-1.3967419513794e-39
-9.5648896249381e-39
-5.9700879258951e-38
-3.4202678153309e-37
-1.8092587924939e-36
-8.8822266369755e-36
-4.0649072196918e-35
-1.7409056564483e-34
-7.0014193125904e-34
-2.6522107259911e-33
-9.4891158407138e-33
-3.2144319871189e-32
-1.0332498662305e-31
-3.1579218522497e-31
-9.1936127259171e-31
-2.5537869522934e-30
-6.7789163294854e-30
-1.7219548930475e-29
-4.1911054849057e-29
-9.7857808480446e-29
-2.1943019369667e-28
-4.7300707584653e-28
-9.8109405003519e-28
-1.9597198418546e-27
-3.772724490033e-27
-7.0048900775139e-27
-1.2551935287753e-26
-2.1718605812761e-26
-3.6306477472109e-26
-5.8661798107781e-26
-9.164335990915e-26
-1.3846511241315e-25
-2.0237291422153e-25
-2.8613384047353e-25
-3.9135169643579e-25
-5.1767128551939e-25
-6.6198836778813e-25
-8.1782871215596e-25
-9.7508200977656e-25
-1.1202600840915e-24
-1.2373860515121e-24
-1.3095154154864e-24
-1.3207582475485e-24
-1.2585414761124e-24
-1.1157547633615e-24
-8.9239165839029e-25
-5.9634611992807e-25
-2.4315062694902e-25
1.4537662695422e-25
5.4340949611817e-25
9.2397892712338e-25
1.2619810856772e-24
1.5368659447557e-24
1.7346151228458e-24
1.8487598565956e-24
1.8803686493034e-24
1.8371097181543e-24
1.7316307947069e-24
1.5795754430513e-24
1.3975643045896e-24
1.2014203058704e-24
1.0048284339872e-24
8.1851721949151e-25
6.4995285177714e-25
5.0346390015196e-25
3.8067261504055e-25
2.8109746112382e-25
2.0280473626335e-25
1.430156984378e-25
9.8610134384639e-26
6.6500070281959e-26
4.3873405039725e-26
2.8324541945685e-26
1.7897806884399e-26
1.1071233300549e-26
6.7054410347786e-27
3.9770652236757e-27
2.3102805193368e-27
1.314590205908e-27
7.328106218329e-28
4.0023610742515e-28
2.141939639357e-28
1.1233216487945e-28
1.1421275878595e-28
0
0
0
0
1.8150258501382e-65
2.4271041558973e-53
-3.4270534894038e-51
-3.4566695219428e-49
-1.4532635064027e-47
-3.9048705500845e-46
-7.7203393593845e-45
-1.2066549415848e-43
-1.55761852213e-42
-1.7105227850909e-41
-1.6325919720283e-40
-1.3763887507608e-39
-1.0380804698238e-38
-7.0759285722711e-38
-4.3958751768991e-37
-2.5064981938165e-36
-1.3195880442706e-35
-6.4473610793091e-35
-2.9364884433848e-34
-1.2516056278158e-33
-5.009466141069e-33
-1.8885385922928e-32
-6.7244393038274e-32
-2.266979142742e-31
-7.2520775509087e-31
-2.2058374950189e-30
-6.3910935272753e-30
-1.7668226197488e-29
-4.667575410673e-29
-1.1799956428639e-28
-2.8583888217146e-28
-6.6424919465657e-28
-1.4824715477382e-27
-3.1807326558597e-27
-6.5668815000309e-27
-1.3057386874812e-26
-2.5024317134163e-26
-4.625856140422e-26
-8.2534047877205e-26
-1.4221490258975e-25
-2.3678835396691e-25
-3.8113870753467e-25
-5.9331875531556e-25
-8.9354965531066e-25
-1.30221748564e-24
-1.8367582920758e-24
-2.5075410647735e-24
-3.313149989997e-24
-4.2357809893191e-24
-5.237721905169e-24
-6.2599874366796e-24
-7.2240500449569e-24
-8.0372116966409e-24
-8.6015312955755e-24
-8.8254661832371e-24
-8.6366686879783e-24
-7.9938860802231e-24
-6.8957993406989e-24
-5.3849781638833e-24
-3.5458920068042e-24
-1.4969551267737e-24
6.2232490028357e-25
2.6671242998297e-24
4.5035245635965e-24
6.0226833558272e-24
7.1509289571437e-24
7.8545784497361e-24
8.1392644683968e-24
8.0444815454425e-24
7.6347499969231e-24
6.9891370822911e-24
6.190855717921e-24
5.3183439334215e-24
4.4387286137703e-24
3.6040257075589e-24
2.8499400956827e-24
2.1967774997315e-24
1.6517980920854e-24
1.2123159014107e-24
8.6894099537604e-25
6.0852220190605e-25
4.1652835180996e-25
2.7876866380194e-25
1.8247621575175e-25
1.168552916559e-25
7.322756181955e-26
4.4913639648859e-26
2.6967668211005e-26
1.5854251222339e-26
9.127538972156e-27
5.1467042795487e-27
2.8426829094893e-27
1.5381624019176e-27
8.154487440933e-28
4.2359775398708e-28
4.2266436105068e-28
0
0
0
0
2.5200693750952e-64
1.9641770850611e-52
-1.9579611031764e-50
-2.1401134295865e-48
-9.1273618407932e-47
-2.4607313464821e-45
-4.8629155603562e-44
-7.5837224120516e-43
-9.7585931940556e-42
-1.0676689336338e-40
-1.0148724729375e-39
-8.5191782600114e-39
-6.3964565916819e-38
-4.340039829903e-37
-2.6836222121605e-36
-1.5229389923863e-35
-7.9794382069352e-35
-3.8798851410123e-34
-1.758551537086e-33
-7.4588711552253e-33
-2.9707481791289e-32
-1.1144476840511e-31
-3.9485737100959e-31
-1.3245643235146e-30
-4.2161914715668e-30
-1.2760119749075e-29
-3.678500570116e-29
-1.0117991935413e-28
-2.6594400931266e-28
-6.6891245708989e-28
-1.6121068670807e-27
-3.7271971138751e-27
-8.2758699668589e-27
-1.7665671156652e-26
-3.6286135373706e-26
-7.1783248000827e-26
-1.3687550311802e-25
-2.5174981062861e-25
-4.4693782704938e-25
-7.6634991629452e-25
-1.2698445920564e-24
-2.0343818543655e-24
-3.1525388041916e-24
-4.7270821733589e-24
-6.860533564269e-24
-9.6393344421055e-24
-1.3113334985875e-23
-1.7272771115298e-23
-2.202637763118e-23
-2.7185407307832e-23
-3.2458644368594e-23
-3.7462670200954e-23
-4.1749549010804e-23
-4.4850974715254e-23
-4.6334326122994e-23
-4.5862829793469e-23
-4.3249992809793e-23
-3.8498310466673e-23
-3.1814234596907e-23
-2.3595237788895e-23
-1.4389762674959e-23
-4.8358239666308e-24
4.4120825406008e-24
1.2756173758463e-23
1.9717479358876e-23
2.4978191317991e-23
2.839961975274e-23
3.001563996618e-23
3.0005573705975e-23
2.8653268006384e-23
2.6300323962304e-23
2.3301005503591e-23
1.9984687416325e-23
1.6629343034475e-23
1.3447117095477e-23
1.0580961371267e-23
8.1099213069531e-24
6.0600331251052e-24
4.4178315440578e-24
3.143980836982e-24
2.1852949057479e-24
1.4841986766153e-24
9.8535660148735e-25
6.3967778070146e-25
4.0618637813172e-25
2.5234858274272e-25
1.534229783656e-25
9.1303128843525e-26
5.3194748344262e-26
3.0346835458248e-26
1.6954532974881e-26
9.277811524473e-27
4.9733160698508e-27
2.611773156643e-27
1.343868821587e-27
1.3162837389864e-27
0
0
0
0
2.6109205150267e-63
1.320084259046e-51
-9.2427119997728e-50
-1.1232547316213e-47
-4.8744966459665e-46
-1.3199755174608e-44
-2.6087337049857e-43
-4.0605928234337e-42
-5.2096518920044e-41
-5.6793622053164e-40
-5.377023439477e-39
-4.4944753379615e-38
-3.3596204188223e-37
-2.2691083156877e-36
-1.3965290119665e-35
-7.8875949648523e-35
-4.1128344649328e-34
-1.9900892606265e-33
-8.9758296245763e-33
-3.7882745196537e-32
-1.5012991686809e-31
-5.6037537811792e-31
-1.9754349869804e-30
-6.5930127937559e-30
-2.0878762304151e-29
-6.2863396350152e-29
-1.8028419987141e-28
-4.9329883923196e-28
-1.289794010163e-27
-3.2270059787014e-27
-7.7359099988138e-27
-1.778995706894e-26
-3.9288956502547e-26
-8.341468018613e-26
-1.7041275705653e-25
-3.3529714208739e-25
-6.3588338062411e-25
-1.1632402871024e-24
-2.0540169233351e-24
-3.5031119497499e-24
-5.7738700455974e-24
-9.2016381655671e-24
-1.4185496109165e-23
-2.1162834070685e-23
-3.0562743970408e-23
-4.2737298352293e-23
-5.7874674027818e-23
-7.590410560631e-23
-9.6408561539625e-23
-1.1856510423397e-22
-1.4113336402808e-22
-1.6250817786016e-22
-1.8084303412513e-22
-1.9423773934931e-22
-2.0096923902635e-22
-1.9973218855175e-22
-1.898490702869e-22
-1.7141077817472e-22
-1.4531822750133e-22
-1.1321213893641e-22
-7.7298271259638e-23
-4.0094586413098e-23
-4.1408092831454e-24
2.82834472746e-23
5.53893794323e-23
7.6027491215686e-23
8.9739481231592e-23
9.6716802350862e-23
9.7684202377965e-23
9.3736185074572e-23
8.6157423007256e-23
7.6255165572005e-23
6.5224306779785e-23
5.4056309236541e-23
4.3493885191979e-23
3.4025930781509e-23
2.5912611979419e-23
1.9228821764668e-23
1.391496293869e-23
9.8263209455526e-24
6.7752806382637e-24
4.5635653284217e-24
3.004048247881e-24
1.9332897847905e-24
1.216793095602e-24
7.4919006973238e-25
4.5137169030124e-25
2.6616000800202e-25
1.5364050913846e-25
8.6836392560845e-26
4.806190477821e-26
2.6053480517338e-26
1.3834121508049e-26
7.1962754076219e-27
3.6675665112441e-27
3.5269365998251e-27
0
0
0
0
2.1528026407099e-62
7.5778540603271e-51
-3.6202175353829e-49
-5.0947351427385e-47
-2.2582851676154e-45
-6.1500402512344e-44
-1.2162810597709e-42
-1.89023905481e-41
-2.4184909536924e-40
-2.6274783099321e-39
-2.4779412077147e-38
-2.062560242446e-37
-1.5349855980209e-36
-1.0320209580903e-35
-6.3219585347041e-35
-3.5536527113874e-34
-1.8440310184861e-33
-8.8791066887356e-33
-3.9849025974222e-32
-1.6734394025595e-31
-6.5984484771851e-31
-2.4504240304981e-30
-8.5939871137101e-30
-2.8534356936773e-29
-8.989255802985e-29
-2.6923673987528e-28
-7.6805863490601e-28
-2.0904022567345e-27
-5.4363350132844e-27
-1.3528045032973e-26
-3.2253725151287e-26
-7.3766809231869e-26
-1.6201658635418e-25
-3.4207447479574e-25
-6.9495563963348e-25
-1.3597240880684e-24
-2.5642205248174e-24
-4.6644179125064e-24
-8.189886040708e-24
-1.3889043957059e-23
-2.2763131664336e-23
-3.6073074297698e-23
-5.5300217477396e-23
-8.2042290303442e-23
-1.1783183647829e-22
-1.6387684329603e-22
-2.2074183796725e-22
-2.8800953729913e-22
-3.6398326571412e-22
-4.455024888045e-22
-5.2794192161142e-22
-6.0544507560716e-22
-6.7140628613977e-22
-7.1916674568684e-22
-7.4283984947575e-22
-7.3814152848523e-22
-7.0308353199815e-22
-6.3839878924488e-22
-5.4760816203555e-22
-4.3669979272562e-22
-3.1346266738391e-22
-1.8657922770414e-22
-6.4623760392203e-23
4.487494533215e-23
1.3616792355253e-22
2.0572375367808e-22
2.5233514483704e-22
2.7691913963179e-22
2.8208300668412e-22
2.7155523602757e-22
2.4958599814634e-22
2.2040681974512e-22
1.8781160959837e-22
1.5488856058346e-22
1.2390221910466e-22
9.6302321886308e-23
7.2823194891906e-23
5.3634301974399e-23
3.8506777212198e-23
2.696947033635e-23
1.8438220379522e-23
1.2311451392291e-23
8.032386074307e-24
5.1227231124074e-24
3.1947194953344e-24
1.9488412061049e-24
1.1631952247973e-24
6.7946634767979e-25
3.8852324235073e-25
2.175120871861e-25
1.1924522143054e-25
6.4025774451095e-26
3.3673023690206e-26
1.7348935267418e-26
8.7573067117736e-27
8.2694410725145e-27
0
0
0
0
1.4716410429282e-61
3.7925112516342e-50
-1.1566527965439e-48
-2.0249308140776e-46
-9.213247198695e-45
-2.5271748290814e-43
-5.0048226644576e-42
-7.7690003585685e-41
-9.9153240382607e-40
-1.073678839184e-38
-1.0087459249545e-37
-8.3619272863547e-37
-6.1959723011438e-36
-4.1468956693995e-35
-2.5284707758032e-34
-1.4145154207089e-33
-7.3045028627679e-33
-3.4998614476591e-32
-1.5629033753709e-31
-6.5303135303529e-31
-2.5618546395435e-30
-9.4650536361076e-30
-3.3023828479679e-29
-1.0907725599467e-28
-3.4182696321034e-28
-1.0183963093718e-27
-2.8897514076255e-27
-7.8228215845148e-27
-2.0234436678397e-26
-5.0078945848299e-26
-1.1874602454729e-25
-2.7008657081087e-25
-5.8991288716253e-25
-1.2385655371661e-24
-2.5021234073635e-24
-4.8678714512365e-24
-9.1277497387052e-24
-1.6508567101709e-23
-2.8818889022087e-23
-4.8589640163004e-23
-7.9170030583255e-23
-1.2472585613827e-22
-1.9007895582319e-22
-2.8033115923475e-22
-4.0023921253786e-22
-5.5335141911902e-22
-7.4097872744773e-22
-9.6114213044952e-22
-1.2076973408342e-21
-1.4698664721107e-21
-1.7323871772177e-21
-1.9764138371153e-21
-2.181178764926e-21
-2.3262657059586e-21
-2.3941973316424e-21
-2.3729314343403e-21
-2.2578292194172e-21
-2.0527191250387e-21
-1.7698242795687e-21
-1.4285223380901e-21
-1.0531192050112e-21
-6.6999550702094e-22
-3.0458785352292e-22
2.1324264804009e-23
2.916378139356e-22
4.9701414677988e-22
6.3497882567484e-22
7.0914758171697e-22
7.2782006715935e-22
7.0224745485249e-22
6.4487849763072e-22
5.6783323378415e-22
4.8176532868458e-22
3.9517698628988e-22
3.1416503411657e-22
2.4251652795925e-22
1.8204188535421e-22
1.3303058495627e-22
9.4731484447527e-23
6.5787613588953e-23
4.458541859045e-23
2.9504709424781e-23
1.9074683898752e-23
1.2052616038846e-23
7.4461320410369e-24
4.4993868572958e-24
2.6599878355298e-24
1.5389515362531e-24
8.715470193317e-25
4.8324412142902e-25
2.623797785099e-25
1.3952441245294e-25
7.2674990267839e-26
3.7083892012666e-26
1.8539343164646e-26
1.719276068709e-26
0
0
0
0
8.5786443055272e-61
1.680884945787e-49
-2.8095394086201e-48
-7.1231738093781e-46
-3.3484398184118e-44
-9.2683039470856e-43
-1.8395631906818e-41
-2.8535406654675e-40
-3.6338050887019e-39
-3.9226624918125e-38
-3.6719487764776e-37
-3.0315543342776e-36
-2.2366428901729e-35
-1.4902302164049e-34
-9.0441267535098e-34
-5.0355199418864e-33
-2.5877046593711e-32
-1.2337553322341e-31
-5.4819693363633e-31
-2.278982709514e-30
-8.8949484067721e-30
-3.2694591251359e-29
-1.1348227781554e-28
-3.7287912520917e-28
-1.1624118812393e-27
-3.4449095310835e-27
-9.7233666366898e-27
-2.6181998898493e-26
-6.7359911392388e-26
-1.658150172011e-25
-3.9105016383498e-25
-8.8459880944055e-25
-1.9215205199332e-24
-4.0121028685363e-24
-8.06005489733e-24
-1.559275582047e-23
-2.9072224946728e-23
-5.2279205539964e-23
-9.0734898294241e-23
-1.5208601779066e-22
-2.4633427305182e-22
-3.857523296826e-22
-5.8431143049695e-22
-8.5646995530177e-22
-1.2152522954095e-21
-1.6696870280613e-21
-2.2218576887744e-21
-2.8640125611389e-21
-3.576329081579e-21
-4.3259762103594e-21
-5.068020127793e-21
-5.7484621095992e-21
-6.3093132072689e-21
-6.6951724009905e-21
-6.8603854276144e-21
-6.7756243910039e-21
-6.4327186779801e-21
-5.8468077935255e-21
-5.0553360048144e-21
-4.1139725563426e-21
-3.0900953320496e-21
-2.0548986290158e-21
-1.075389330302e-21
-2.0748665148327e-22
5.088354000903e-22
1.0518519823519e-21
1.417805808533e-21
1.6184354960387e-21
1.6770069150231e-21
1.6236680550667e-21
1.4909076623787e-21
1.3097274099296e-21
1.1068948206249e-21
9.0339131470452e-22
7.1395720296536e-22
5.4749369049648e-22
4.0801928095318e-22
2.9588424443853e-22
2.0900071182355e-22
1.4392289715095e-22
9.6690450166665e-23
6.3413303138947e-23
4.0621562385959e-23
2.5428435386405e-23
1.5561525138227e-23
9.3135579976973e-24
5.4532154031528e-24
3.1245607303073e-24
1.752406929764e-24
9.6224796173697e-25
5.174026148455e-25
2.7247810405561e-25
1.4055847937567e-25
7.1032373320334e-26
3.5169978141347e-26
3.203618223188e-26
0
0
0
0
4.3529715009308e-60
6.6792386680063e-49
-3.6620835196685e-48
-2.2325196618206e-45
-1.0938505573699e-43
-3.0624222213863e-42
-6.0978897053046e-41
-9.4575350612011e-40
-1.202082039246e-38
-1.2938906215606e-37
-1.206933492412e-36
-9.9251746125272e-36
-7.2916506732777e-35
-4.8366432164111e-34
-2.9217775286789e-33
-1.619046027701e-32
-8.2798077117991e-32
-3.9281708645212e-31
-1.7367035353657e-30
-7.1834876692682e-30
-2.7894910879152e-29
-1.0200710512768e-28
-3.5224461801903e-28
-1.1514300389362e-27
-3.5708857206146e-27
-1.0527729714172e-26
-2.9560364978886e-26
-7.9182167644904e-26
-2.0265256608868e-25
-4.962421952041e-25
-1.1641602394049e-24
-2.6195443941223e-24
-5.6599049425297e-24
-1.175446701882e-23
-2.3486263163461e-23
-4.5187482144407e-23
-8.3784407687384e-23
-1.4982010877649e-22
-2.5854419678445e-22
-4.308532381493e-22
-6.9374999717178e-22
-1.0798976023801e-21
-1.6258218653314e-21
-2.3684096637156e-21
-3.3395968409507e-21
-4.5595332841551e-21
-6.0290020992772e-21
-7.7223466023507e-21
-9.582479400149e-21
-1.1519569750488e-20
-1.341463666053e-20
-1.5128518182283e-20
-1.6515659584327e-20
-1.7441081854928e-20
-1.7798022914782e-20
-1.7523326775261e-20
-1.660783203493e-20
-1.509977718844e-20
-1.3100444134354e-20
-1.075264167918e-20
-8.2238865700089e-21
-5.687006732163e-21
-3.301205687157e-21
-1.1963562887157e-21
5.374672176637e-22
1.8542644555926e-21
2.7503507258512e-21
3.2576735074711e-21
3.4339332757173e-21
3.3514589752366e-21
3.0866291333224e-21
2.7111867828765e-21
2.2862089199757e-21
1.8589015360642e-21
1.4619123883089e-21
1.1145498679434e-21
8.2517969984169e-22
5.9411191188023e-22
4.164346829142e-22
2.8444035992495e-22
1.8947276121357e-22
1.2317190007614e-22
7.8189035232298e-23
4.8492897512731e-23
2.9397508359056e-23
1.7426964624926e-23
1.0105776817777e-23
5.7344702644778e-24
3.1850336857148e-24
1.731957390087e-24
9.2225963205045e-25
4.8099282640578e-25
2.4572952581363e-25
1.2298776198768e-25
6.0310710460489e-26
5.3972115909137e-26
0
0
0
0
1.9531459836109e-59
2.4033021210419e-48
9.1918692761145e-48
-6.2549506409274e-45
-3.2341597475065e-43
-9.185585242504e-42
-1.8372080998833e-40
-2.8508144544884e-39
-3.6180382960347e-38
-3.8840960641569e-37
-3.6109319684487e-36
-2.9580857988963e-35
-2.1641631606885e-34
-1.4292036987367e-33
-8.5941743949953e-33
-4.7398321040021e-32
-2.4122620767182e-31
-1.1388318473187e-30
-5.009947223108e-30
-2.061871298338e-29
-7.9662996396142e-29
-2.8984083585135e-28
-9.9578948173272e-28
-3.2385821723442e-27
-9.992874873403e-27
-2.9312379682685e-26
-8.189048960536e-26
-2.1825466364862e-25
-5.557819802828e-25
-1.354139925972e-24
-3.1608071859862e-24
-7.0765251444008e-24
-1.5212523348063e-23
-3.1432312743938e-23
-6.2480786014106e-23
-1.1958652625952e-22
-2.2055964812839e-22
-3.922784038656e-22
-6.7325519306454e-22
-1.1157117675255e-21
-1.7863239666063e-21
-2.7646056221929e-21
-4.137902954741e-21
-5.9922746673198e-21
-8.3991998642951e-21
-1.1399050097467e-20
-1.4983420905689e-20
-1.9079461276897e-20
-2.3539924115704e-20
-2.8142481833924e-20
-3.2600753667991e-20
-3.6587557691011e-20
-3.9768472957657e-20
-4.1841415690353e-20
-4.257619863679e-20
-4.1847444484485e-20