/*--------------------------------*- C++ -*----------------------------------*\
  =========                 |
  \\      /  F ield         | OpenFOAM: The Open Source CFD Toolbox
   \\    /   O peration     | Website:  https://openfoam.org
    \\  /    A nd           | Version:  7
     \\/     M anipulation  |
\*---------------------------------------------------------------------------*/
FoamFile
{
    version     2.0;
    format      ascii;
    class       surfaceScalarField;
    location    "2.1";
    object      alphaPhi0.water;
}
// * * * * * * * * * * * * * * * * * * * * * * * * * * * * * * * * * * * * * //

dimensions      [0 3 -1 0 0 0 0];

internalField   nonuniform List<scalar> 
11840
(
0
0
0
0
0
0
0
0
0
0
0
0
0
0
0
0
0
0
0
0
0
0
0
0
0
0
0
0
0
0
0
0
0
0
0
0
0
0
0
0
0
0
0
0
0
0
0
0
0
0
0
0
0
0
0
0
0
0
0
0
0
0
0
0
0
0
0
0
0
0
0
0
0
0
0
0
0
0
0
0
0
0
0
0
0
0
0
0
0
0
0
0
0
0
0
0
0
0
0
0
0
0
0
0
0
0
0
0
0
0
0
0
0
0
0
0
0
0
0
0
0
0
0
0
0
0
0
0
0
0
0
0
0
0
0
0
0
0
0
0
0
0
0
0
0
0
0
0
0
0
0
0
0
0
0
0
0
0
0
0
0
0
0
0
0
0
0
0
0
0
0
0
0
0
0
0
0
0
0
0
0
0
0
0
0
0
0
0
0
0
0
0
0
0
0
0
0
0
0
0
0
0
0
0
0
0
0
0
0
0
0
0
0
0
0
0
0
0
0
0
0
0
0
0
0
0
0
0
0
0
0
0
0
0
0
0
0
4.6764175455796e-204
-5.3084369338094e-215
7.0636690967539e-204
3.5318345483769e-204
1.0697676326022e-203
5.3465158927025e-204
1.9510139112509e-204
8.7449879995793e-204
3.5472980204562e-205
1.5962841092053e-204
1.7290199611024e-184
-4.1245845141745e-185
1.1666910180352e-184
-2.5619133918789e-191
2.1212563964276e-185
9.5456537839246e-185
3.8568298116866e-186
1.735573415259e-185
7.01241783943e-187
3.1555880277436e-186
3.185544454975e-187
0
1.1766675040892e-187
0
2.1393954619804e-188
9.627279578912e-188
6.4772542571618e-189
3.2386271285809e-189
1.9478804389087e-189
0
5.4765158555026e-190
0
1.4635356559264e-190
0
2.6609739198662e-191
1.1974382639398e-190
4.8381343997567e-192
2.1771604798905e-191
1.2427477046536e-192
0
3.0927515463677e-193
0
5.6231846297594e-194
2.5304330833917e-193
1.3638606779479e-194
0
2.479746687178e-195
1.1158860092301e-194
5.7071782455802e-196
2.8535891227901e-196
1.0376687719237e-196
4.6695094736564e-196
2.4264189495683e-197
0
5.5906821314434e-198
0
1.0164876602628e-198
4.5741944711771e-198
2.3140964186646e-199
0
4.2074480339567e-200
1.8933516152483e-199
9.4872806744484e-201
0
2.1236787395434e-201
0
3.8612340728347e-202
1.7375553313925e-201
8.5984717572667e-203
0
1.5633585113222e-203
7.0351131456441e-203
2.8424701587805e-204
1.2791113455521e-203
6.3098564321899e-205
0
1.1472477971872e-205
5.1625968524022e-205
2.5435850156327e-206
0
4.6248254202892e-207
2.0809698347161e-206
1.025969287979e-207
0
1.8727443275224e-208
8.3359588168197e-208
4.0651669276961e-209
2.032583463848e-209
7.4878233144806e-210
3.2177524556668e-209
1.63447510964e-210
8.1723755481997e-211
3.5824717302227e-211
1.7912358651113e-211
7.8774546135398e-212
4.4051504600469e-212
1.7440384992957e-212
8.7201924964785e-213
3.9978935161657e-213
0
8.9528415993084e-214
4.4764207996542e-214
2.0778378110262e-214
0
4.698229912733e-215
2.3498203554189e-215
1.1008631029577e-215
0
2.5066950013923e-216
1.2533658677156e-216
5.7225229138351e-217
2.8612614569175e-217
1.3096033871594e-217
6.5480281762108e-218
3.1091670126661e-218
0
7.3707659229414e-219
0
1.7036132052728e-219
8.5180660289028e-220
4.1316574769174e-220
0
9.787505196464e-221
4.8937525996449e-221
2.4681675334061e-221
0
6.0971363206744e-222
3.0485681603372e-222
1.6339332473005e-222
0
4.5506286615436e-223
0
1.2288926915917e-223
6.1444634579606e-224
3.6464969640112e-224
0
1.0286274053183e-224
5.1431370265917e-225
3.0095047876193e-225
6.7556417925203e-226
8.6337344430545e-226
4.3168672215272e-226
2.489858501085e-226
1.2449292505425e-226
7.2026538879803e-227
3.5337521966721e-227
2.0825387913803e-227
1.0412693956902e-227
6.0139439834599e-228
3.0034026022727e-228
1.7324544512473e-228
8.6622722562366e-229
4.9749347666667e-229
2.4871304413908e-229
1.4233497844365e-229
7.1164312842982e-230
4.0560186358664e-230
2.0280093179332e-230
1.1510092720466e-230
5.7550310727654e-231
2.2615990924688e-231
0
0
0
0
0
0
0
0
0
0
0
0
0
0
0
0
0
0
0
0
0
0
0
0
0
0
0
0
0
0
0
0
0
0
0
0
0
0
3.4497365261638e-144
1.7248682630819e-144
1.4470984708548e-140
7.2354923542739e-141
1.3156886486787e-140
1.3159455977105e-141
0
1.2127792567749e-137
2.1184105482617e-119
0
4.2517311083579e-119
3.0255236228594e-120
5.6678969347229e-118
2.2504461639326e-119
1.117864807471e-117
0
3.6040982750827e-119
1.0818238247202e-117
3.6040982750827e-119
0
3.8890180328735e-119
0
3.7580379248874e-119
0
2.6010452957391e-119
0
8.182263206388e-121
2.5192226636752e-119
7.6499604365607e-121
0
4.7707762298299e-121
0
2.3249728008551e-121
0
1.2487745429474e-121
0
3.7980488144615e-123
1.2107940548027e-121
2.4569412887387e-123
0
3.2182216997454e-124
0
3.2165557961761e-124
0
3.6871265557985e-125
0
3.6853245659763e-125
0
6.6541582965878e-127
3.6187829830105e-125
4.1989119129019e-127
0
2.5725415025969e-127
0
2.2458177044641e-128
0
8.7860992234103e-129
0
3.0650379042925e-129
0
8.0391794330849e-130
0
4.1153847580164e-130
0
3.1555039281611e-131
0
9.8101794142235e-132
0
6.2907308875614e-132
0
2.7763312700193e-132
0
3.3350626781072e-133
2.4428250022086e-132
1.5328917479221e-133
0
4.7731745173547e-135
1.4851600027486e-133
4.7701954734607e-135
0
1.0405747175623e-136
4.6661380017045e-135
1.0395897260589e-136
0
4.7431784703374e-137
0
1.8362834067173e-138
4.5595501296657e-137
1.5552323460036e-138
0
2.827695174552e-139
1.2724628285484e-138
3.3805014878175e-140
2.4896450257703e-139
1.5305187800773e-140
0
4.765838718032e-142
1.482860392897e-140
4.7627806352363e-142
0
8.356027895283e-144
4.6792203562835e-142
4.8558475069603e-144
0
2.6527116094945e-144
0
2.3183247685955e-145
0
2.3167930307003e-145
0
4.2123509649095e-146
1.8955579342093e-145
1.2635742938474e-147
4.0859935355248e-146
2.96498772253e-148
0
2.9630177536861e-148
0
1.2251218776041e-149
2.8405055659257e-148
1.0289198177757e-149
0
1.2203048828032e-150
9.0688932949535e-150
5.3845755263832e-151
0
1.1391451976511e-152
5.2706610066181e-151
1.13860182429e-152
0
4.1616210666473e-153
0
6.2619084393428e-154
0
3.7026638583692e-154
0
3.7696305996366e-155
3.3258469043722e-154
1.9584490973233e-155
0
7.0669696413921e-156
0
1.2796432063895e-156
5.7873264350026e-156
4.5106424614705e-157
0
8.1867442462591e-158
3.6919680374002e-157
2.8344608464621e-158
0
9.6517960112014e-159
0
3.2329702108583e-159
0
1.0652474435666e-159
0
1.9368095138798e-160
8.7156649217865e-160
6.3398560276292e-161
0
0
0
0
0
0
0
0
0
0
0
0
0
0
0
0
0
0
0
0
0
0
0
0
0
0
0
0
0
0
0
0
0
0
0
0
-7.7332997736753e-83
-3.8666498868377e-83
-8.8580968700569e-82
-4.4290484350284e-82
-4.8853653870521e-81
-2.4426826935261e-81
-1.7537123387045e-80
-8.7685616935227e-81
-4.653086228585e-80
-2.3265431142925e-80
-9.79838690358e-80
-4.89919345179e-80
4.4088085386777e-66
3.3401565944867e-66
2.573765003904e-67
4.4417583056791e-66
3.3761812242606e-67
1.0917180447053e-67
7.9944006982307e-67
3.0385816786431e-66
2.2187539890195e-65
1.6047509490334e-65
1.41258947971e-64
9.6795443708339e-65
6.5213094343357e-64
4.286447648682e-64
1.0464335421078e-61
5.5596928974134e-62
8.7731742160065e-61
5.8343351024375e-61
5.4871692691384e-60
3.5776057479194e-60
9.8317494972788e-59
5.6022537032698e-59
4.5889331204914e-58
3.0668275438966e-58
4.2663828091345e-57
2.4979681166557e-57
1.9158325184018e-56
1.335563980779e-56
7.5160382793491e-56
5.2395194368042e-56
4.0907672900595e-55
2.6088975792051e-55
1.4067847977719e-54
1.0170109581006e-54
4.8323752879574e-54
3.4550093824934e-54
2.0716009878562e-53
1.4905938695382e-53
6.283691768874e-53
4.7680533681348e-53
1.4212139095514e-52
1.1131114807344e-52
3.2442378162414e-52
2.3429764016568e-52
6.9366719966853e-52
4.1676017563001e-52
1.3677640110079e-51
8.5621532091667e-52
3.1554844989083e-51
2.1116566968371e-51
7.7626357475464e-51
5.585635537349e-51
1.526404026349e-50
1.1774914916944e-50
2.1606149716951e-50
2.0866847262409e-50
2.2136347679112e-50
2.2086125810079e-50
2.0592154999744e-50
2.2019591710513e-50
1.9486760941593e-50
2.0114032024783e-50
1.6662747496383e-50
1.8903071858748e-50
1.3855026368139e-50
1.6016545650104e-50
1.1173605441973e-50
1.2608703194054e-50
6.8969892589031e-51
9.1628355171122e-51
2.9841720820379e-51
4.7393772823502e-51
6.2672189775012e-52
1.7097032604937e-51
8.9396661226363e-53
3.518506656869e-52
1.9895864569172e-53
5.3229955109509e-53
3.2097089953573e-54
1.5943347717554e-53
8.2847892520082e-55
2.0906116743511e-54
1.5345307315683e-55
6.4834874891492e-55
2.4809920197412e-56
1.2425361732102e-55
6.2389620880042e-57
1.6239908591575e-56
1.0058391021036e-57
5.0319673877909e-57
2.5946898446109e-58
6.5364232645346e-58
4.8058075279636e-59
2.0311611283823e-58
7.8059686036533e-60
3.8898264258201e-59
1.8612020872741e-60
5.1583713353238e-60
3.6386671731638e-61
1.3775985787149e-60
9.008818127869e-62
2.331806667324e-61
1.6630207854485e-62
7.038558068721e-62
2.6597610189128e-63
1.3492360660114e-62
6.9084403894242e-64
1.7282130645886e-63
1.2942715092427e-64
5.392688547842e-64
2.4766684203085e-65
1.0202027406524e-64
4.5868387139792e-66
1.9500250818294e-65
7.0806768157411e-67
3.7449395244587e-66
1.43095771602e-67
5.4011270395459e-67
3.5549605983265e-68
9.3486860604218e-68
8.6341559715441e-69
2.2294298967429e-68
2.0586573964973e-69
5.3307317819003e-69
4.6616724453784e-70
1.2741798343203e-69
8.5702438167888e-71
3.615234502933e-70
1.3685676175808e-71
6.9412412073301e-71
3.3705022904979e-72
8.9521064424565e-72
7.7742517422778e-73
2.1307834786317e-72
1.175056607218e-73
6.2907764969186e-73
2.37788062979e-74
8.9176106552293e-74
5.8284547648643e-75
1.5528660627616e-74
1.3798763970411e-75
3.6611106260168e-75
3.0485791252416e-76
8.7214852168781e-76
6.8323438706556e-77
1.8769126544372e-76
1.0919156422369e-77
5.4498523809566e-77
2.5433893020712e-78
7.111522944176e-78
6.9168087032101e-79
1.5428275873436e-78
5.371115603774e-79
0
0
0
0
0
0
0
0
0
0
0
0
0
0
0
0
0
0
7.7219935573103e-57
3.8919235388966e-57
4.9255221389835e-55
2.5922791577947e-55
6.1733902809117e-54
3.3058823760997e-54
1.0057493202424e-52
5.379461003418e-53
1.3164835078795e-51
7.2102004249596e-52
1.4872417911118e-50
8.2154105276459e-51
8.0929518265482e-50
8.1118408951298e-50
6.7533620801261e-50
8.2748795424454e-50
4.8827308771726e-49
4.5672203366055e-49
8.5684164910738e-50
4.0258837163058e-49
1.614123977492e-50
6.9542925135818e-50
2.9347564682487e-51
1.3206483306671e-50
5.6600352999733e-52
2.3687529382514e-51
5.7011826199691e-48
0
1.0372865463462e-48
4.6638960736236e-48
1.8859730426808e-49
8.4868924207814e-49
3.4290462819036e-50
1.5430684144904e-49
6.234629872622e-51
2.8055832946414e-50
1.1335690691577e-51
5.1010608034643e-51
2.0610346711829e-52
9.2746560203972e-52
3.7473358403274e-53
1.6863010871619e-52
9.1345238795002e-50
0
1.6608225242969e-50
7.4737013554132e-50
3.0196773306967e-51
1.3588547922102e-50
3.1902217436111e-49
0
5.8151439838145e-50
2.6087073557397e-49
9.5193060329323e-44
0
9.5200542579861e-44
0
3.4761930820128e-45
9.1724349510153e-44
3.5493469453204e-45
0
6.453357643935e-46
2.9040111841613e-45
1.1733379855651e-46
5.2800197479993e-46
3.3569462349039e-47
1.5106255228203e-46
6.1060953175422e-48
2.7477327418081e-47
3.5246697885166e-49
5.7540340407078e-48
6.9798734981301e-49
0
1.2322401194907e-49
4.7563381791125e-49
3.9326024218655e-50
8.7381702230865e-50
2.8232879723424e-50
1.6598099389361e-50
1.8608380511039e-48
0
1.7769707453257e-47
0
1.1480772474848e-47
6.3303511031878e-48
4.6500598326032e-48
0
8.6665253042653e-49
3.8267326402302e-48
5.6315101529837e-48
0
5.6752600901272e-48
0
1.04692345845e-48
4.6584770919733e-48
1.1437317084851e-48
0
2.162038500253e-49
9.4193815489323e-49
2.1136502675814e-49
0
6.4345711771863e-51
2.0639232183757e-49
6.619667695563e-51
0
5.5969457469436e-51
0
9.2367569491629e-52
4.6848493466168e-51
7.3075495245828e-52
0
1.3317317878008e-52
5.9805801008873e-52
2.1078968601951e-53
1.1218623664682e-52
1.5904187337839e-53
0
2.3908624939733e-54
1.3517034172232e-53
1.7836184316547e-54
0
1.0399329246152e-55
1.6797747685156e-54
1.0402218667773e-55
0
1.6211361872061e-56
0
1.6206930484953e-56
0
1.0747381168726e-56
0
1.8391460300841e-57
8.9082868441758e-57
3.3440068126156e-58
1.504755358807e-57
6.4681804257007e-59
0
6.4664007300496e-59
0
2.1389103765548e-60
6.2525172941871e-59
2.1383219782193e-60
0
8.7968111773356e-62
2.0503566409924e-60
8.2046089304825e-62
0
2.55604308123e-62
0
1.03083486392e-62
0
9.520903802207e-63
0
1.4536219599075e-63
0
1.4531401327807e-63
0
2.7533741216544e-65
1.4256064422711e-63
1.9509848751676e-65
0
1.438302319595e-65
0
5.7601757473475e-67
1.3807006071047e-65
5.2891476413442e-67
0
1.3165087315874e-67
0
4.9391576745307e-68
0
4.5400776009091e-68
0
7.0541000181277e-69
0
7.0517595269626e-69
0
8.369613597458e-70
0
6.6445909614078e-70
0
0
0
0
0
0
0
0
0
0
0
0
0
0
0
0
2.1935997639849e-47
1.0982862253775e-47
2.0337511282629e-45
1.0271872202859e-45
9.2217352563555e-44
4.7045354675506e-44
2.7223043559917e-42
1.4039614607992e-42
5.9054954717812e-41
3.0806014770093e-41
1.0045629729468e-39
5.3045448852671e-40
1.3835198538698e-38
7.4044932594207e-39
1.569834195969e-37
8.5246410494081e-38
1.5049850789056e-36
8.2855089067612e-37
1.2772098105907e-35
7.1022525141204e-36
1.0147981015953e-34
5.6726709617076e-35
7.8201470051416e-34
4.3837065966817e-34
5.8438572739855e-33
3.288720406005e-33
4.1453812195268e-32
2.3492728815376e-32
2.7280360546631e-31
1.562067089701e-31
1.6393682612412e-30
9.5112729681662e-31
8.921494583583e-30
5.2564251946865e-30
4.3834824966032e-29
2.6273945548632e-29
1.9445251927362e-28
1.1873601406226e-28
7.7992568640905e-28
4.8573549872264e-28
2.8342997262193e-27
1.8023082397216e-27
9.3542474832314e-27
6.0792545419609e-27
2.8107560466552e-26
1.8685642352593e-26
7.7099226745561e-26
5.2470506282362e-26
1.9363328968142e-25
1.3498759322849e-25
4.4677012146141e-25
3.1917154321876e-25
9.5068507723695e-25
6.961087856335e-25
1.8735769679827e-24
1.4060318731098e-24
3.4341900593008e-24
2.6410683268123e-24
5.8750969861723e-24
4.6306910037347e-24
9.3954121739088e-24
7.5962527418857e-24
1.4006445043551e-23
1.1651996480594e-23
1.9193647096718e-23
1.6586483887673e-23
2.3326331473493e-23
2.1383169514907e-23
2.4667633523581e-23
2.4096739755911e-23
2.4725465798752e-23
2.4505862480856e-23
2.4063855108213e-23
2.4138595577344e-23
2.2098866971912e-23
2.2809458890688e-23
1.8443471317493e-23
1.998233327565e-23
1.355777402417e-23
1.5731569007009e-23
8.4681338332848e-24
1.0774881280049e-23
4.334587021272e-24
6.2100971324459e-24
1.7743075752652e-24
2.9263831790857e-24
5.8899089599081e-25
1.1193988420685e-24
1.6989954224197e-25
3.5973347396859e-25
4.6703625525483e-26
1.0433561994169e-25
1.2996622301907e-26
2.9321067210033e-26
3.7247557378612e-27
8.3109935807978e-27
1.0959270090893e-27
2.405967964812e-27
3.2915810532628e-28
7.1159634865792e-28
1.0053476669749e-28
2.14492994936e-28
3.1113965691633e-29
6.5694998836914e-29
9.7070273778727e-30
2.0360534656073e-29
3.0328420857367e-30
6.3488989811276e-30
9.4273696175351e-31
1.9789157273025e-30
2.9008833917648e-31
6.1292857338572e-31
8.8125316081264e-32
1.8786527232424e-31
2.6414794875313e-32
5.6866478166949e-32
7.8175360849856e-33
1.6994146768059e-32
2.2869087871917e-33
5.0170501421707e-33
6.6193675111668e-34
1.4645355250023e-33
1.8971115540133e-34
4.2307259190251e-34
5.3865935356592e-35
1.210261397951e-34
1.5159330911862e-35
3.4302295385303e-35
4.2303997710203e-36
9.6372072554874e-36
1.1711358457621e-36
2.6850839009523e-36
3.2176590106767e-37
7.4221753489137e-37
8.7770841094521e-38
2.0363378327298e-37
2.3779064640206e-38
5.5472784566405e-38
6.4005476297972e-39
1.5009794531684e-38
1.7121803266357e-39
4.0352925899084e-39
4.5531730361286e-40
1.0782285116701e-39
1.2039948531756e-40
2.864194499677e-40
3.1665511661523e-41
7.5659231113098e-41
8.2851060397612e-42
1.9878931474025e-41
2.1570037704221e-42
5.19628129619e-42
5.5889535627577e-43
1.3516088781135e-42
1.4415071530241e-43
3.4990687924713e-43
3.7015590425037e-44
9.0172860217683e-44
9.4646461706722e-45
2.3136359228299e-44
2.410137976265e-45
5.9112502383639e-45
6.1130697605969e-46
1.504159870378e-45
1.5445971797233e-46
3.8124163685536e-46
3.8883448967855e-47
9.6262281505314e-47
9.7534919675975e-48
2.4216761104323e-47
2.4380959922798e-48
6.0705993011208e-48
6.0741019478645e-49
1.516533624848e-48
1.5083833166735e-49
3.7758839088063e-49
3.7330035350023e-50
9.3717808544759e-50
9.2319310216459e-51
2.3167167385166e-50
2.2275438252262e-51
5.7563630809292e-51
6.4432048347509e-52
1.3190985201531e-51
5.1708778598239e-52
0
0
0
0
0
0
0
0
0
0
0
0
1.9921977232256e-47
9.9380039551988e-48
2.733531361289e-45
1.3633639932709e-45
1.6777225129746e-43
8.4034709627809e-44
6.4081839897199e-42
3.2315312656595e-42
1.7404496459931e-40
8.8511442172886e-41
3.6254618955302e-39
1.8615740038276e-39
6.0661497658468e-38
3.1485163621729e-38
8.3614547872128e-37
4.3924477261544e-37
9.6681558055107e-36
5.1465760042392e-36
9.5417496355403e-35
5.1522899186884e-35
8.134242920415e-34
4.4557545620074e-34
6.1385694771326e-33
3.4002062826528e-33
4.3259246211513e-32
2.4075415545881e-32
2.9844500446438e-31
1.6618112160596e-31
2.0141526174632e-30
1.1243208558246e-30
1.2963844711278e-29
7.2900787411926e-30
7.8036730662538e-29
4.43654079418e-29
4.3368007649531e-28
2.4989304323878e-28
2.2027986115787e-27
1.2896807348405e-27
1.0152246313457e-26
6.0539825469974e-27
4.2268778153286e-26
2.5727737026701e-26
1.5865265238653e-25
9.8747435521168e-26
5.3663294345924e-25
3.4207360592225e-25
1.6371980774089e-24
1.0701575598047e-24
4.5149473873038e-24
3.0288759735702e-24
1.1295357934372e-23
7.7796414564614e-24
2.5772606165687e-23
1.8217941511664e-23
5.4009324845874e-23
3.9141321166098e-23
1.0477982781585e-22
7.7737348665682e-23
1.8958239104841e-22
1.4380438731512e-22
3.2157726817651e-22
2.4929286573565e-22
5.1226704499606e-22
4.0631423618639e-22
7.6391851457282e-22
6.2218217865951e-22
1.052395956154e-21
8.8836231973254e-22
1.2950880576973e-21
1.1562552416941e-21
1.3866623893172e-21
1.3223197764718e-21
1.3919658345039e-21
1.3543392152411e-21
1.3624672824284e-21
1.3385328535385e-21
1.2634167060614e-21
1.2743921192638e-21
1.0699294976709e-21
1.1300601842954e-21
8.0254148363714e-22
9.0502423835423e-22
5.1516539956528e-22
6.343413381398e-22
2.7358099487826e-22
3.7703661679305e-22
1.1738661943493e-22
1.849304886542e-22
4.1093500188733e-23
7.4224784985266e-23
1.245594902619e-23
2.5079679783358e-23
3.5614315385056e-24
7.6060137493766e-24
1.0227307467498e-24
2.2173671388281e-24
3.0188264298383e-25
6.4891437652232e-25
9.1676602831748e-26
1.9386570443523e-25
2.8518911135327e-26
5.9303614360067e-26
9.0488112526895e-27
1.8543241049828e-26
2.913609123646e-27
5.90514284583e-27
9.4544131245174e-28
1.9044857162347e-27
3.0664016458653e-28
6.1746326005932e-28
9.8639857105417e-29
1.9964999521653e-28
3.1295393926903e-29
6.3940393578224e-29
9.7664914249744e-30
2.0191278221696e-29
2.9973482669789e-30
6.2747447911651e-30
9.0578719094831e-31
1.9191580751422e-30
2.6998840071267e-31
5.7838787578512e-31
7.9496233889193e-32
1.7201014908775e-31
2.31479336903e-32
5.0544453833191e-32
6.6709125544288e-33
1.4689544116934e-32
1.9038497432661e-33
4.2255896824909e-33
5.3838223454387e-34
1.2038719699362e-33
1.5093268933803e-34
3.3988201616125e-34
4.1968500888241e-35
9.5138338499542e-35
1.1580023296582e-35
2.641632042822e-35
3.1719207621499e-36
7.2790065913102e-36
8.6283236833288e-37
1.9912770585036e-36
2.3316922110724e-37
5.4101829910126e-37
6.2617199720847e-38
1.4603596304589e-37
1.6715517392773e-38
3.9175098860328e-38
4.4367642751809e-39
1.0446890664511e-38
1.1712273907362e-39
2.7701641910427e-39
3.0757045167335e-40
7.3058688818893e-40
8.0365502947114e-41
1.9168356859334e-40
2.0897924706226e-41
5.0042199987706e-41
5.4091134822827e-42
1.3002055102342e-41
1.3938442037272e-42
3.3627273712026e-42
3.5763382013367e-43
8.6586497738506e-43
9.1383078532477e-44
2.2200240180922e-43
2.3257257634964e-44
5.6686547364498e-44
5.8962480949191e-45
1.44171396006e-44
1.4892690065638e-45
3.6526941641884e-45
3.7480331708078e-46
9.2201418066169e-46
9.3997176390422e-47
2.3190201323903e-46
2.3494589337955e-47
5.8124350442587e-47
5.8517147821539e-48
1.452085572232e-47
1.4562620167912e-48
3.6125735711889e-48
3.5350206808001e-49
9.0331554530874e-49
1.0295755169892e-49
2.0816261177271e-49
8.2309798578698e-50
0
0
0
0
0
0
0
0
0
0
8.9533509057371e-48
4.4414271469354e-48
1.6755214818424e-45
8.2801552144612e-46
1.3328137339012e-43
6.5860900218039e-44
6.3433804426301e-42
3.1433668241049e-42
2.0982866732338e-40
1.0448500670603e-40
5.2322710165754e-39
2.6224390506203e-39
1.0358151612167e-37
5.232368936819e-38
1.6846807293886e-36
8.5881521439222e-37
2.2967572676931e-35
1.18314770877e-35
2.6694096312986e-34
1.3914486220226e-34
2.6753103379094e-33
1.4130868796563e-33
2.3272577760165e-32
1.2469730658805e-32
1.7803439809648e-31
9.6809542007943e-32
1.2141488172505e-30
6.6844375392183e-31
7.6606492531667e-30
4.2320421145706e-30
4.8879040104703e-29
2.6837368289494e-29
3.2137627362143e-28
1.7599646290607e-28
2.0246664362046e-27
1.1223410055345e-27
1.169370087257e-26
6.6243380112314e-27
6.187028595446e-26
3.5781885116623e-26
2.9957673479002e-25
1.7670998060617e-25
1.3182926720921e-24
7.9400437730511e-25
5.2263587658203e-24
3.2214675661839e-24
1.8520324065692e-23
1.1715014403357e-23
5.8313547870321e-23
3.7963460347983e-23
1.6248347058802e-22
1.0918181870133e-22
4.0011795005827e-22
2.7814859511006e-22
8.7346653236576e-22
6.2868792562041e-22
1.7067529123711e-21
1.2695185214246e-21
3.0374716156354e-21
2.3224230114767e-21
5.0389634516737e-21
3.928848955016e-21
7.9734434858377e-21
6.2896523843261e-21
1.2213513749927e-20
9.7045352606331e-21
1.8109434201689e-20
1.4524528717742e-20
2.5517887002971e-20
2.0890130984e-20
3.2799739860617e-20
2.8072194092766e-20
3.6619870473314e-20
3.3596424312e-20
3.7022463198266e-20
3.5301181973062e-20
3.6622651317316e-20
3.5100351834333e-20
3.4475382280941e-20
3.3830965568179e-20
2.9771539026295e-20
3.052501347574e-20
2.2869640708814e-20
2.497915354736e-20
1.510356491277e-20
1.7961289606031e-20
8.305521876825e-21
1.100816766656e-20
3.7186134287304e-21
5.6040716657694e-21
1.3658360988296e-21
2.349536634036e-21
4.3393833778969e-22
8.3156249434405e-22
1.2919513602436e-22
2.6344152219585e-22
3.8401542922e-23
7.980068105892e-23
1.1711259198086e-23
2.4179287308107e-23
3.6803790593226e-24
7.4760371401429e-24
1.18820392215e-24
2.3711514387903e-24
3.9224716104023e-25
7.7064153422801e-25
1.3155879554438e-25
2.5556340395455e-25
4.4448526966941e-26
8.5878291707746e-26
1.498233783346e-26
2.8983220611057e-26
4.9942820034796e-27
9.7337600527329e-27
1.6362533309407e-27
3.2279684829623e-27
5.2535494986917e-28
1.0517832862619e-27
1.6529699718361e-28
3.3604596495798e-28
5.1054741204902e-29
1.0531611697636e-28
1.5515682338019e-29
3.2429268340263e-29
4.6492701977987e-30
9.8313098512156e-30
1.375845828684e-30
2.9397635734908e-30
4.0254047342064e-31
8.6827084350042e-31
1.1653424470024e-31
2.5356694808551e-31
3.3402993298613e-32
7.3277578120528e-32
9.4855233488174e-33
2.0969108681356e-32
2.6700686409788e-33
5.9453734011263e-33
7.4540746502279e-34
1.6711232719397e-33
2.0648134908844e-34
4.6589562481139e-34
5.6776580471997e-35
1.2889028613327e-34
1.5503375076372e-35
3.5398471387847e-35
4.2053654700106e-36
9.6548552068975e-36
1.1335496954677e-36
2.616094287316e-36
3.0371370222146e-37
7.0444031504271e-37
8.0908280578971e-38
1.8855758412175e-37
2.1435577791012e-38
5.0184413241442e-38
5.6492646873533e-39
1.3283913987176e-38
1.4813471104572e-39
3.4979620386802e-39
3.8656019242066e-40
9.1649138745926e-40
1.0040472757034e-40
2.3897475238875e-40
2.596234977586e-41
6.2024936591202e-41
6.68432998636e-42
1.6026786575266e-41
1.7138100244934e-42
4.1234696613465e-42
4.3764426534436e-43
1.0565291255165e-42
1.113250075049e-43
2.6962777165596e-43
2.8211950799567e-44
6.8544202206882e-44
7.1235032210534e-45
1.7360233489566e-44
1.7924112856809e-45
4.3809280307998e-45
4.4935304595159e-46
1.1017913376826e-45
1.1254638601804e-46
2.7590801850756e-46
2.748926480382e-47
6.943882593735e-47
8.0630656839219e-48
1.6093391050404e-47
6.4205916419786e-48
0
0
0
0
0
0
0
0
0
0
4.2557148425376e-46
2.0685684185954e-46
5.6514269025602e-44
2.7482753040951e-44
3.6036712450214e-42
1.7557525173799e-42
1.4761612422294e-40
7.2156301622456e-41
4.3906450086373e-39
2.155845516871e-39
1.0148238014774e-37
5.0107543942866e-38
1.9037528192256e-36
9.4619879266486e-37
2.9853126521145e-35
1.4951930301015e-35
3.9838183079375e-34
2.0130720649977e-34
4.5959434051308e-33
2.3462401758683e-33
4.619360136632e-32
2.3860478660891e-32
4.0694362754891e-31
2.1294527170049e-31
3.1768164938825e-30
1.6871471347363e-30
2.183836121047e-29
1.1777782260531e-29
1.3510093357237e-28
7.3796240592757e-29
7.8372107127678e-28
4.2792225058073e-28
4.7428544230994e-27
2.5388487782798e-27
3.3979289068297e-26
1.7871744324017e-26
2.8114909622796e-25
1.4846310983035e-25
2.130802336771e-24
1.1595679536137e-24
1.3624302032717e-23
7.6879218375603e-24
7.3699393956897e-23
4.3000834180603e-23
3.4022861093991e-22
2.0493671338075e-22
1.3466124054851e-21
8.38423783115e-22
4.5586329457725e-21
2.9414200177725e-21
1.3219876479945e-20
8.8692835692027e-21
3.2713481437019e-20
2.2967229573528e-20
6.7810099732555e-20
5.0398634332915e-20
1.1496519210419e-19
9.1614262958007e-20
1.6028675238763e-19
1.3671482202938e-19
1.9564684603997e-19
1.7400697869164e-19
2.2711502048603e-19
2.0416766749405e-19
2.6617723803673e-19
2.3625961453236e-19
3.245377592962e-19
2.8049650739371e-19
4.1065369367892e-19
3.467762268809e-19
5.185480517715e-19
4.372656778038e-19
6.0381536714559e-19
5.3096037137767e-19
6.233792624711e-19
5.7879468176714e-19
6.2360485344826e-19
5.8225681622655e-19
5.9523799511186e-19
5.6747617729061e-19
5.2719262005082e-19
5.2275906852286e-19
4.1551857485723e-19
4.3823757090384e-19
2.82420010447e-19
3.2370504341783e-19
1.6043376396066e-19
2.0439631390125e-19
7.4613836552007e-20
1.0766620832507e-19
2.8622302638962e-20
4.6953206467122e-20
9.5140658243823e-21
1.735255240127e-20
2.9548743822602e-21
5.7411443218107e-21
9.1253086194125e-22
1.811357287585e-21
2.8866090285362e-22
5.7027986957773e-22
9.4186515272624e-23
1.8315085144903e-22
3.1640448383447e-23
6.0419964988754e-23
1.0888651778668e-23
2.0463059536917e-23
3.8096848950627e-24
7.0805159810364e-24
1.3417723443789e-24
2.4827596670787e-24
4.7060491285172e-25
8.7334918816774e-25
1.6279977928088e-25
3.0506274013863e-25
5.5174405512117e-26
1.0492338139402e-25
1.8259798556288e-26
3.5339296042573e-26
5.9003840840693e-27
1.1629517891367e-26
1.865316091568e-27
3.7406648601451e-27
5.785679295477e-28
1.1783996810426e-27
1.7655932089835e-28
3.6452179394113e-28
5.3126875729301e-29
1.1099508001732e-28
1.578686413088e-29
3.333316190741e-29
4.6376247582862e-30
9.8867971981983e-30
1.347893501643e-30
2.8992531774426e-30
3.8785159815605e-31
8.412301458533e-31
1.1055866816069e-31
2.4167879335557e-31
3.1238295110045e-32
6.8790178030777e-32
8.7534470651247e-33
1.9409999160025e-32
2.4337483755021e-33
5.4320093172473e-33
6.7168100595303e-34
1.5084604678952e-33
1.8408092853606e-34
4.1584167457754e-34
5.0114678266575e-35
1.1384328563107e-34
1.3557219020793e-35
3.0961500309905e-35
3.6454706581186e-36
8.3677530089785e-36
9.746119393896e-37
2.2479879773551e-36
2.5912767680781e-37
6.0047306073649e-37
6.853313849043e-38
1.5951988171169e-37
1.8033738743588e-38
4.2155797929459e-38
4.7223304639738e-39
1.1084431113501e-38
1.2308176160993e-39
2.9004751238556e-39
3.1935502252269e-40
7.554484430832e-40
8.250261376967e-41
1.958824723416e-40
2.1224740637444e-41
5.0572191407549e-41
5.4382679909465e-42
1.3002279900657e-41
1.3879750754766e-42
3.3295142726988e-42
3.5290669179604e-43
8.4928801743165e-43
8.9404968234028e-44
2.1582009400679e-43
2.2563748090482e-44
5.4650199150582e-44
5.6886116132698e-45
1.3777249605112e-44
1.3982190127972e-45
3.4904545823341e-45
4.1310608050517e-46
8.1367945834749e-46
3.2762445561949e-46
0
0
0
0
0
0
0
0
2.2701559733637e-58
6.5111464137983e-59
9.7208237773634e-45
4.6213811797326e-45
1.1226139982078e-42
5.3540946911679e-43
6.3916803467499e-41
3.0598150390554e-41
2.3889629165182e-39
1.148647906985e-39
6.5936801478075e-38
3.1861708634546e-38
1.4336865495755e-36
6.9664385296391e-37
2.5596946725553e-35
1.2514269511018e-35
3.8604437774736e-34
1.9002345465904e-34
5.0092114241428e-33
2.4845602207963e-33
5.6794911506597e-32
2.8416122605766e-32
5.6662917198295e-31
2.863756715647e-31
5.0055539541052e-30
2.5587705375608e-30
3.9490719461056e-29
2.0459796824105e-29
2.7566655713425e-28
1.449075227041e-28
1.7365963775625e-27
9.2880973077204e-28
9.6578243520402e-27
5.2319996289818e-27
5.2340566855671e-26
2.7767899082697e-26
3.7512170313182e-25
1.9115926121386e-25
3.2650919873605e-24
1.6249823745168e-24
3.3020368905095e-23
1.6570227373508e-23
3.1801726066652e-22
1.6446468494655e-22
2.4762145269452e-21
1.3315105719288e-21
1.5029087225799e-20
8.4417304592431e-21
7.2623442768148e-20
4.2565020737412e-20
2.8232192243392e-19
1.7318199570282e-19
8.8416626998931e-19
5.7149708436467e-19
2.2258955623999e-18
1.5308424637574e-18
4.4333380871047e-18
3.3014770677395e-18
6.6848957594459e-18
5.5753436045075e-18
7.5250138899784e-18
7.0869760135726e-18
7.5616452710534e-18
7.3159672102119e-18
7.125278147152e-18
7.058613700169e-18
6.1004845672898e-18
6.2508551305642e-18
5.6510233017234e-18
5.4055883227007e-18
5.686622431836e-18
5.3069131779627e-18
6.226102309743e-18
5.538551958464e-18
7.038631279595e-18
6.1296621421597e-18
7.4929814250737e-18
6.7294781846743e-18
7.5192814884147e-18
6.8626193601583e-18
7.3034201642841e-18
6.7565524838921e-18
6.6123455261554e-18
6.3358643529115e-18
5.3463644613911e-18
5.4349789824976e-18
3.7361692276537e-18
4.1202125322972e-18
2.1889646716097e-18
2.6771891472616e-18
1.0556558849256e-18
1.4571742571171e-18
4.2250742613924e-19
6.6025665300701e-19
1.470384663258e-19
2.5476541528684e-19
4.7761566242831e-20
8.8156766123125e-20
1.5380257914451e-20
2.905308796998e-20
5.0654124748446e-21
9.5384449900674e-21
1.7218531100855e-21
3.1935688890159e-21
6.0355609787285e-22
1.0994306970672e-21
2.1698412074622e-22
3.8907522474901e-22
7.9315471088191e-23
1.4075548170529e-22
2.9156264849262e-23
5.1580666568609e-23
1.0654616962501e-23
1.8937365923923e-23
3.8316383672959e-24
6.8905898564143e-24