/*--------------------------------*- C++ -*----------------------------------*\
  =========                 |
  \\      /  F ield         | OpenFOAM: The Open Source CFD Toolbox
   \\    /   O peration     | Website:  https://openfoam.org
    \\  /    A nd           | Version:  7
     \\/     M anipulation  |
\*---------------------------------------------------------------------------*/
FoamFile
{
    version     2.0;
    format      ascii;
    class       volScalarField;
    location    "2.1";
    object      alpha.water;
}
// * * * * * * * * * * * * * * * * * * * * * * * * * * * * * * * * * * * * * //

dimensions      [0 0 0 0 0 0 0];

internalField   nonuniform List<scalar> 
6000
(
0
0
0
0
0
0
0
0
0
0
0
0
0
0
0
0
0
0
0
0
0
0
0
0
0
0
0
0
0
0
0
0
0
0
0
0
0
0
0
0
0
0
0
0
0
0
0
0
0
0
0
0
0
0
0
0
0
0
0
0
0
0
0
0
0
0
0
0
0
0
0
0
0
0
0
0
0
0
0
0
0
0
0
0
0
0
0
0
0
0
0
0
0
0
0
0
0
0
0
0
0
0
0
0
0
0
0
0
0
0
0
0
0
0
0
0
0
0
0
1.0521939477581e-201
1.4127338193508e-201
2.1396513787199e-201
1.7287300525052e-204
4.5325554997805e-219
4.0965241381891e-182
2.6250549186749e-182
-3.5453325983677e-247
-1.1980048311933e-276
1.6847356379671e-217
7.1674750236937e-185
2.6475018842008e-185
0
1.2954508514324e-186
4.3827309875446e-187
1.2322160674881e-187
3.2929552258344e-188
-6.3790047687023e-205
4.5346231932795e-228
2.7961823354706e-190
6.9586909793273e-191
1.2458993688875e-207
3.0686865253828e-192
6.2294968444536e-208
1.141435649116e-193
6.6918423133603e-208
5.4594426365287e-195
1.2579034795748e-195
2.7191312672909e-208
5.2067169419953e-197
1.6112226298051e-208
2.1346381517509e-198
4.7782771639726e-199
6.9154888774482e-209
1.934656145385e-200
7.7652856695948e-209
1.1294959360792e-208
1.4197176972427e-202
9.1174700930505e-209
5.7230662851736e-204
1.0080220705871e-208
2.3084308979528e-205
4.5695328515674e-208
8.1303338553922e-207
7.5884017924757e-209
3.2689502192799e-208
7.1649434604453e-209
1.5521697650441e-209
3.4880769985914e-210
8.9952604113728e-211
1.7905683198617e-211
4.675135074809e-212
9.3961071259397e-213
2.4769419816549e-213
5.0133808192749e-214
1.144504582767e-214
2.6192062122982e-215
6.9956257784987e-216
1.6584223326618e-216
3.4072264104187e-217
9.2962293230642e-218
1.9575010392222e-218
5.5533769501637e-219
1.2194272641349e-219
3.6763498064261e-220
1.0238914488473e-220
2.4577853831832e-221
8.2046181690252e-222
2.0572548106367e-222
6.4336036825173e-223
1.7267468886109e-223
4.97971700217e-224
1.443909514962e-224
4.1650775827607e-225
1.2029672661649e-225
3.4649089024947e-226
9.9500380043046e-227
2.8467154507673e-227
8.1120372717329e-228
2.3020193084666e-228
9.0463963698751e-229
0
0
0
0
0
0
0
0
0
0
0
0
0
0
0
0
0
0
0
6.8994730523277e-142
2.8941969417095e-138
1.2847451593524e-142
6.0644225336391e-135
4.4237396743111e-117
1.2773418384936e-117
5.5065784537536e-116
2.2497281859913e-115
0
0
8.1894739227711e-117
8.1403885310551e-117
5.9345960521917e-117
0
2.5912049521895e-119
1.0274757686793e-118
7.5827280630878e-119
2.3677267770783e-119
0
2.9968894740861e-121
4.2364793109244e-121
3.3737445324758e-125
5.1264789921783e-122
3.243823810958e-126
0
4.2486721088982e-125
2.7941230625149e-125
3.7907038231467e-125
2.0693761853085e-126
8.5602124987445e-127
3.286419074758e-127
5.4167025958438e-128
5.2625858114339e-128
2.8709040871082e-129
4.5962663707526e-130
4.6630454004699e-130
0
2.3446324709269e-131
0
3.8757548444621e-136
0
1.2814721621921e-137
7.2167661984974e-135
0
3.5907996179212e-137
0
0
2.3157021019108e-138
3.053258236835e-155
3.8279373688913e-143
-5.6902623986817e-158
4.3140993349171e-142
2.6957040651e-142
2.9080556639063e-142
1.8399861557565e-146
5.7225229138351e-215
1.1647255847301e-160
1.1349426342324e-145
2.3477315413047e-149
0
2.3397802544639e-148
0
7.9919685468184e-149
0
6.4226808203001e-153
8.3852570257849e-151
4.0157123533618e-151
3.0239925369442e-152
-7.9289196487675e-157
3.0089533816895e-153
1.5748546552428e-153
0
1.011217065967e-154
-3.4803605666421e-165
6.3744812201611e-156
2.1717119742195e-156
7.2740542143924e-157
2.3967693099118e-157
0
1.4264660488396e-158
6.7268143436424e-159
0
0
0
0
0
0
0
0
0
0
0
0
0
0
0
0
0
-1.5466599547351e-80
-1.7716193740114e-79
-9.7707307741042e-79
-3.5074246774091e-78
-9.30617245717e-78
-1.959677380716e-77
8.4195533100844e-64
1.8045965920193e-65
4.0120805930932e-66
5.9711318834844e-65
2.1483287455407e-63
1.5075318842184e-62
6.6064659945715e-62
1.0451903714456e-59
8.9283696829665e-59
5.4529629534723e-58
1.0523978450602e-56
4.7675634960003e-56
4.9833165999875e-55
2.1484505805794e-54
8.3026630308527e-54
4.6958751234685e-53
1.6452082207815e-52
5.5524702750399e-52
2.3869049185467e-51
7.8768287810985e-51
1.869828319065e-50
4.4332070511704e-50
1.0223305067809e-49
1.9883848724519e-49
4.2055623849567e-49
1.0600027057954e-48
2.2292109173548e-48
3.7448455007937e-48
4.2468551667968e-48
3.9429950539637e-48
3.8296700440752e-48
3.3459740197354e-48
2.8289036499413e-48
2.4030909896551e-48
1.657344228819e-48
9.0195257846118e-49
2.5730101823209e-49
2.8983745000025e-50
4.1654704053876e-51
3.0074410828126e-52
1.3506191052416e-52
1.2066796686728e-53
1.9804124558784e-54
1.0596462763936e-54
9.1097664232452e-56
4.1823480608883e-56
3.7440685434254e-57
6.1287974747411e-58
3.5647681093569e-58
5.5714173173552e-59
1.7939569925536e-59
1.3693345743505e-60
2.1500908156316e-61
1.0619853433743e-61
9.8663168859061e-63
1.1804667045489e-63
3.0446806325907e-64
5.9914405187248e-65
1.1137415391868e-65
6.2323701526916e-66
2.0150551470764e-66
5.3363270447779e-67
1.3164940972926e-67
7.9532712574571e-69
1.1153071687228e-69
5.7746157207027e-70
1.8904192727422e-70
1.2801880278387e-71
1.9157457411315e-72
1.0016388296763e-72
3.2152917202789e-73
7.3957396348252e-74
1.733842950447e-74
1.0894330245484e-75
4.7731233358128e-76
1.1715450845338e-76
5.6832404013841e-77
0
0
0
0
0
0
0
0
0
7.3763684054685e-55
4.8532804529101e-53
6.1733402991523e-52
1.0112402467803e-50
1.3355828666462e-49
1.5278617127028e-48
1.5617282087078e-47
1.2762418812012e-47
8.6675652631773e-47
-1.4342384871672e-53
2.4308653429145e-64
0
0
1.2838383907926e-45
-2.3269256506951e-58
-5.2464079613254e-62
-6.1301283743849e-66
1.2153833251381e-64
1.5952553812876e-63
1.1147796533522e-62
5.2538976337288e-62
2.0552678739233e-47
9.986022528252e-59
4.1610355738828e-58
7.1779989253159e-47
5.3215720772816e-56
1.3916882419941e-40
1.1102719510872e-44
-2.4934253940373e-51
1.0694865671696e-43
1.8112325452572e-52
4.4720201770954e-52
1.8360951336867e-51
6.2586661833858e-51
1.5899744801739e-50
1.2098367836789e-46
2.7985439754233e-47
1.6647940771924e-49
3.5422505289097e-49
3.895575306685e-46
2.5882329553051e-44
7.8023710334762e-48
7.3432736741035e-46
4.2015350119214e-48
8.2599949237994e-45
6.0531351086657e-48
3.0310242509637e-48
2.5763355558575e-46
1.7728785280231e-48
4.4165766453387e-47
2.1411948997416e-49
5.5410139800737e-50
1.2441073656918e-48
1.9076723056648e-51
1.5936361954432e-49
7.7060268940756e-53
1.4437747656232e-53
3.4190018477478e-51
5.9473275609868e-55
3.4729209346589e-52
2.4062478128688e-56
4.5053860817333e-57
3.3425953890153e-53
2.2376527244642e-57
2.0026803425493e-54
8.3880018202685e-60
1.5642723686195e-60
9.4540071501598e-56
6.390879221299e-60
1.16699420083e-62
2.1166204019363e-61
4.3441025707944e-64
2.0604591346689e-60
1.9168537362809e-59
4.7054392331421e-60
3.7368653167792e-61
2.2880765665144e-60
1.393437343054e-64
8.0565687427107e-69
2.3055521450644e-63
1.4636263561124e-63
7.5709737730244e-71
1.3531030354208e-65
1.1297817606267e-64
2.3042563953442e-65
1.0769935218635e-66
1.1075641672724e-65
6.7569996464629e-70
1.8110178380622e-66
4.8549248467289e-68
1.9587918874154e-67
0
0
0
0
0
0
0
2.0777742472715e-45
1.9453679252536e-43
8.9123157677291e-42
2.6593365943484e-40
5.8332838363125e-39
1.004028846078e-37
1.4008347011071e-36
1.6119006848479e-35
1.5659496881784e-34
1.3421489962621e-33
1.0724465568807e-32
8.2943079550201e-32
6.2273721641149e-31
4.4508561632715e-30
2.9603652207936e-29
1.8028115107493e-28
9.9639227352794e-28
4.9807643724684e-27
2.251255188839e-26
9.2125889690431e-26
3.4200641512999e-25
1.154433851626e-24
3.5516476506812e-24
9.9844196131159e-24
2.5719120710612e-23
6.0896042093632e-23
1.3300396717513e-22
2.690255468389e-22
5.0599857266896e-22
8.8824463504435e-22
1.4586558307032e-21
2.239769241376e-21
3.1924660091509e-21
4.1256446259612e-21
4.6579001203243e-21
4.7127526577823e-21
4.6366489074741e-21
4.3789122942886e-21
3.8381063972135e-21
3.0161204733641e-21
2.055248618238e-21
1.1703607716074e-21
5.3741683918107e-22
1.9564119291133e-22
5.824163798096e-23
1.5524985989705e-23
4.113419709124e-24
1.1424270962253e-24
3.3252775215573e-25
9.984039062825e-26
3.0582845814949e-26
9.5011822681837e-27
2.977876374127e-27
9.3537930440973e-28
2.9235925592887e-28
9.0390418367111e-29
2.7548513483295e-29
8.2691323669941e-30
2.4468409870066e-30
7.14891506107e-31
2.065449867336e-31
5.9072736384596e-32
1.6735840563396e-32
4.6989619904514e-33
1.3080852285138e-33
3.6119291023503e-34
9.8969584596699e-35
2.6921856826909e-35
7.2730290074166e-36
1.9520151742846e-36
5.2064956804238e-37
1.3804735430875e-37
3.6395474181822e-38
9.5435851932644e-39
2.48955163519e-39
6.4620400859687e-40
1.6693376766477e-40
4.292655978345e-41
1.098983942313e-41
2.8016327943579e-42
7.1129953462993e-43
1.7987802347261e-43
4.5315533063826e-44
1.1374052364687e-44
2.8446911936883e-45
7.0901661434578e-46
1.7612757268091e-46
4.3609525336028e-47
1.0766244227016e-47
2.6446062087169e-48
6.5963633409463e-49
1.382977882908e-49
6.5180934960982e-50
0
0
0
0
0
0
1.8837789135287e-45
2.602909129529e-43
1.6109426195562e-41
6.2098321271619e-40
1.7031846257443e-38
3.5845970241025e-37
6.064135442513e-36
8.458996277516e-35
9.9067605822358e-34
9.9115221838257e-33
8.5676068317518e-32
6.5387605473251e-31
4.6358182249427e-30
3.207770927539e-29
2.1742784708311e-28
1.409900186072e-27
8.5744269419939e-27
4.826530196728e-26
2.4893495951057e-25
1.1677845826167e-24
4.9600623587067e-24
1.9032191815209e-23
6.5936995120391e-23
2.0639946038774e-22
5.8481317033962e-22
1.5045205324858e-21
3.530673906301e-21
7.6050153621383e-21
1.5147133252972e-20
2.8102476468315e-20
4.8849030919136e-20
7.978934687061e-20
1.2236006764348e-19
1.7489596036118e-19
2.2800300347575e-19
2.6110636217993e-19
2.6609416905265e-19
2.6257072450571e-19
2.4968261085607e-19
2.215506964993e-19
1.7708817331368e-19
1.2352548506945e-19
7.2613308656356e-20
3.480167927733e-20
1.337383213733e-20
4.2251493310031e-21
1.187365121991e-21
3.2708192371948e-22
9.3561183536243e-23
2.8021763046113e-23
8.6883544084399e-24
2.7594565085972e-24
8.91088489028e-25
2.9043262065581e-25
9.4737227979825e-26
3.0665919507106e-26
9.7846076457482e-27
3.0660504713181e-27
9.4292703278942e-28
2.850135118683e-28
8.4864113634783e-29
2.4943937550324e-29
7.2484506754412e-30
2.0844148594341e-30
5.9355602825811e-31
1.6745756267247e-31
4.6830695042653e-32
1.2988376791123e-32
3.5742459823536e-33
9.7635982864336e-34
2.6485198237945e-34
7.1370588935231e-35
1.9111676628633e-35
5.0871070727786e-36
1.346339970106e-36
3.5437303966019e-37
9.278780577313e-38
2.4173543378541e-38
6.2675405378721e-39
1.6174977330837e-39
4.1558202201346e-40
1.0631836728258e-40
2.7087303475277e-41
6.8737310263275e-42
1.7375935088008e-42
4.3761168235319e-43
1.0981649294593e-43
2.7462208337004e-44
6.8442967430681e-45
1.7005741760013e-45
4.2036582162948e-46
1.0549265292629e-46
2.2264114418258e-47
1.0551128219987e-47
0
0
0
0
0
8.4577053171993e-46
1.5910284792487e-43
1.2742187328159e-41
6.1121441139435e-40
2.0391908771902e-38
5.1317009898247e-37
1.0257853735617e-35
1.6856956898191e-34
2.3237284870122e-33
2.7329677602307e-32
2.7745476085674e-31
2.4469062702737e-30
1.8983755885523e-29
1.3112623449085e-28
8.3188451492449e-28
5.2961674681561e-27
3.4832469323327e-26
2.2127857335759e-25
1.2940554778737e-24
6.9418499884174e-24
3.4141149204734e-23
1.5302197149774e-22
6.1996301801357e-22
2.2532866484201e-21
7.3041406037624e-21
2.1030221500182e-20
5.3680954972131e-20
1.2167454002404e-19
2.4661152677216e-19
4.5324522891653e-19
7.7105041661364e-19
1.2422181181661e-18
1.9294774793414e-18
2.9059718402002e-18
4.2005300767855e-18
5.6640039734561e-18
6.7917046672772e-18
7.1076931843897e-18
7.0476708181174e-18
6.7721759367396e-18
6.1192368980925e-18
4.9956694856823e-18
3.5759423845192e-18
2.1692351215218e-18
1.0814376991708e-18
4.3613226781598e-19
1.4539406323583e-19
4.2994268980118e-20
1.2346393743294e-20
3.6534265142275e-21
1.1300318912816e-21
3.6269066802878e-22
1.1961264108237e-22
4.0188572670033e-23
1.363337206224e-23
4.6231008854339e-24
1.5520071538986e-24
5.1195802051168e-25
1.6525869479159e-25
5.2163725000419e-26
1.6128763461282e-26
4.8988566321443e-27
1.4657447818869e-27
4.3292627202444e-28
1.2640560987484e-28
3.6517327734667e-29
1.0444494221081e-29
2.9591946631458e-30
8.3098546430986e-31
2.3140717928743e-31
6.3934978688789e-32
1.7533672779572e-32
4.7747851959121e-33
1.2916287681945e-33
3.4718957498765e-34
9.2762227793699e-35
2.4641743435553e-35
6.5099634703204e-36
1.7107846345007e-36
4.4731878975942e-37
1.163945323727e-37
3.0145621515865e-38
7.7726525676854e-39
1.9954451515599e-39
5.1015662160094e-40
1.2990444315106e-40
3.2950425655028e-41
8.3266594960901e-42
2.0965619112115e-42
5.2603039677371e-43
1.315619804036e-43
3.2731354924089e-44
8.2657157926701e-45
1.7561524559952e-45
8.3714968375688e-46
0
0
0
0
0
4.0206409299203e-44
5.3757900650133e-42
3.453624156979e-40
1.4261246033546e-38
4.2781510808035e-37
9.9771742996957e-36
1.8892464809077e-34
2.9919468980994e-33
4.0345148963932e-32
4.7065003034874e-31
4.7880030943415e-30
4.272144625495e-29
3.3826000582782e-28
2.3601925858075e-27
1.4786846481681e-26
8.6078487237234e-26
5.1451125498984e-25
3.6126031905903e-24
2.9719827363618e-23
2.2832682652547e-22
1.4918695405755e-21
8.2721457135141e-21
3.92468275089e-20
1.6023386224204e-19
5.6190145253974e-19
1.6957410309086e-18
4.4000712792293e-18
9.6897709232492e-18
1.7712984737068e-17
2.6620050937288e-17
3.4092202531522e-17
4.0223554318771e-17
4.6940038270323e-17
5.6397267213619e-17
7.0484570687596e-17
8.974548516736e-17
1.0970132788062e-16
1.1967583229828e-16
1.1964646775888e-16
1.1650609774839e-16
1.0726921212676e-16
8.9766292516902e-17
6.6020860709003e-17
4.1288681486734e-17
2.1333553783399e-17
8.9806588531639e-18
3.1446518272665e-18
9.7757302585935e-19
2.9357075730574e-19
9.0298656925493e-20
2.896585253149e-20
9.6524095381737e-21
3.3121122050602e-21
1.1594695160777e-21
4.0983689258005e-22
1.4464076094553e-22
5.0432176239597e-23
1.7231116049777e-23
5.7421776924445e-24
1.8643574762749e-24
5.9077608112683e-25
1.8330171718638e-25
5.5881656526835e-26
1.6787027818882e-26
4.9789441803809e-27
1.4598064583369e-27
4.2344294025179e-28
1.2159252170427e-28
3.4584708357861e-29
9.7493428174089e-30
2.725322595059e-30
7.5583875477487e-31
2.0806705235283e-31
5.6873981814426e-32
1.5442448903268e-32
4.1663248036302e-33
1.1172619876512e-33
2.9788054221167e-34
7.8981520535388e-35
2.0830888466491e-35
5.4661844477808e-36
1.4273927774455e-36
3.7099490575381e-37
9.5991926567111e-38
2.4729533033651e-38
6.3442342399286e-39
1.6210191499478e-39
4.1257450461628e-40
1.046115120267e-40
2.6427833172383e-41
6.6542824814419e-42
1.6664844492342e-42
4.2355319836959e-43
9.0595949480616e-44
4.3456912843039e-44
0
0
0
0
2.1204952202849e-56
9.180984049794e-43
1.0686337888968e-40
6.1342592484286e-39
2.3122994336698e-37
6.4384708975849e-36
1.4127033114327e-34
2.5458965484882e-33
3.8770027382715e-32
5.0815081211826e-31
5.8228247669885e-30
5.8757542919671e-29
5.2529263664104e-28
4.2003451258158e-27
2.9735399152184e-26
1.9039093216974e-25
1.0733235503488e-24
5.7360968538461e-24
3.9849293947087e-23
3.3977484065693e-22
3.4135621741785e-21
3.3256276794218e-20
2.6556132538757e-19
1.6647717501986e-18
8.3497979608677e-18
3.390806005525e-17
1.1182831446236e-16
2.9971556070508e-16
6.4788994434438e-16
1.1006215039038e-15
1.4102859990906e-15
1.4486366594681e-15
1.3988420156341e-15
1.2441602197951e-15
1.0793616567661e-15
1.0828090541095e-15
1.1499337131029e-15
1.2841651416686e-15
1.4214265073011e-15
1.4479095687113e-15
1.4235996738035e-15
1.333423402905e-15
1.1430359132356e-15
8.6295507860912e-16
5.5568722677053e-16
2.9702429703403e-16
1.302732428579e-16
4.7866437524059e-17
1.5657853816255e-17
4.9321870745345e-18
1.5832992574257e-18
5.2875568619861e-19
1.835115441552e-19
6.5668216551085e-20
2.3990031356753e-20
8.8462659550148e-21
3.2533226776812e-21
1.1800719289909e-21
4.185347946945e-22
1.4437211847342e-22
4.8350706635131e-23
1.5742322871452e-23
4.9996811429306e-24
1.5552533131167e-24
4.756169172772e-25
1.4338456843e-25
4.2687059582551e-26
1.2563163313941e-26
3.657840838326e-27
1.0542483052448e-27
3.0096532241877e-28
8.5153512616078e-29
2.3891385247701e-29
6.6504159270707e-30
1.8374556263211e-30
5.0410012627839e-31
1.373736761742e-31
3.719790239956e-32
1.0011324164172e-32
2.6788131479839e-33
7.1282285653159e-34
1.8867367953786e-34
4.9685120090062e-35
1.3020116709966e-35
3.3959332126015e-36
8.8173070083396e-37
2.2793828591446e-37
5.867736217286e-38
1.5043855828037e-38
3.8418809997018e-39
9.7739488347037e-40
2.4779522900242e-40
6.2476931464515e-41
1.5983826303475e-41
3.4420346981758e-42
1.6620090945181e-42
0
0
0
0
-2.2475713506303e-67
1.3405213192925e-41
1.4534477189983e-39
7.8296337518424e-38
2.7891641909159e-36
7.3849834605461e-35
1.5490184713089e-33
2.6812560953369e-32
3.9395184934108e-31
5.0100090937421e-30
5.6047757013913e-29
5.5637108666163e-28
4.9369910395136e-27
3.9460212892712e-26
2.8132253371195e-25
1.8339569228125e-24
1.0540348562444e-23
5.3179099640841e-23
3.12882390774e-22
2.457643340484e-21
2.7226007654953e-20
3.1021006695447e-19
2.8873498899279e-18
2.196646018906e-17
1.236347384126e-16
5.3779314346828e-16
1.912085943219e-15
5.5878786928004e-15
1.3188381278684e-14
2.4229624347113e-14
3.2447173492153e-14
3.3430439703728e-14
3.2107888450138e-14
2.8093697673358e-14
2.1442870648637e-14
1.5039893903896e-14
1.273410587134e-14
1.2888819671362e-14
1.3300856869123e-14
1.3414371490855e-14
1.3246570988852e-14
1.2532238247442e-14
1.0918510701327e-14
8.4379905045513e-15
5.5957891063529e-15
3.0999003479223e-15
1.4186535120534e-15
5.4708060314517e-16
1.882549632952e-16
6.2259836707035e-17
2.0915513683537e-17
7.2975312745897e-18
2.6462951164681e-18
9.8992372835142e-19
3.7803235125545e-19
1.4561522579024e-19
5.5882316358015e-20
2.1127410316066e-20
7.798542995853e-21
2.7935206207204e-21
9.6842763815782e-22
3.250606308029e-22
1.0596906247335e-22
3.3703436441016e-23
1.0506470548366e-23
3.2221562457865e-24
9.7460351958187e-25
2.9116820091477e-25
8.5997031253953e-26
2.5126849627437e-26
7.2674321877621e-27
2.0820188121953e-27
5.9116743753358e-28
1.6645528201089e-28
4.6500590412226e-29
1.289382145454e-29
3.5500629148988e-30
9.7090097849567e-31
2.6383875103455e-31
7.1261651916296e-32
1.9135754991284e-32
5.1099585807596e-33
1.3572902310995e-33
3.5867891873624e-34
9.4320143697723e-35
2.468597774275e-35
6.4316139518071e-36
1.668341758873e-36
4.3093582923559e-37
1.1085802468367e-37
2.8405151977606e-38
7.2520507176204e-39
1.8410649140466e-39
4.7417981149705e-40
1.0280652838818e-40
4.9987226500745e-41
0
0
0
0
0
1.4107313863365e-40
1.4693768208328e-38
7.6188014314005e-37
2.6181623911302e-35
6.701164192963e-34
1.3611987222459e-32
2.2851863921974e-31
3.2609463662672e-30
4.0357793496106e-29
4.4042055059855e-28
4.2825727668588e-27
3.7444731333574e-26
2.9659951111614e-25
2.1137794620085e-24
1.3816050011717e-23
8.148619635412e-23
4.1621329581146e-22
2.0975078517111e-21
1.3165511197514e-20
1.3085588161497e-19
1.5938484394244e-18
1.6861685339282e-17
1.302647972797e-16
8.852745705658e-16
5.1371338073543e-15
2.1344976744684e-14
7.1528091775677e-14
1.9776647574346e-13
4.2234071074117e-13
6.3528476039543e-13
6.7952927082088e-13
6.5420538811648e-13
5.6861244890049e-13
4.1666744027098e-13
2.4893003546918e-13
1.4044424331956e-13
1.0420700300506e-13
9.8414997804296e-14
9.6886976679772e-14
9.4692879457293e-14
8.9687702215591e-14
7.9589978071032e-14
6.3517982055914e-14
4.3835274419769e-14
2.5350552778601e-14
1.2124744525872e-14
4.8922740908939e-15
1.764576226287e-15
6.1238521809298e-16
2.1582309785897e-16
7.8943953424907e-17
3.0001566887525e-17
1.1758554351371e-17
4.7017784900487e-18
1.8946679906227e-18
7.6003359908912e-19
3.00167006355e-19
1.1565605855007e-19
4.3182709315467e-20
1.5561200068434e-20
5.4074321313229e-21
1.8160845403041e-21
5.9220599969743e-22
1.8853066711924e-22
5.8884457182347e-23
1.8107902234083e-23
5.4943510910651e-24
1.6469003563562e-24
4.8803699041583e-25
1.4307182340445e-25
4.1519553224851e-26
1.1935147705849e-26
3.4004912194811e-27
9.6079259903271e-28
2.6933931609521e-28
7.494397338303e-29
2.0706507414617e-29
5.6827899907528e-30
1.5496719548994e-30
4.2001903350239e-31
1.131792501876e-31
3.0327873130604e-32
8.0834184104212e-33
2.1434809916884e-33
5.6559137497725e-34
1.4853396780351e-34
3.8829761245471e-35
1.0106266661303e-35
2.6192202757612e-36
6.7602142330493e-37
1.7382713252438e-37
4.4438275437315e-38
1.1523843743429e-38
2.5155003039493e-39
1.2320453938247e-39
0
0
0
0
0
1.1444834761062e-39
1.1639687916951e-37
5.8926343078634e-36
1.9776820834201e-34
4.945712022383e-33
9.8196911854967e-32
1.6117339588384e-30
2.2487496962992e-29
2.7215511474206e-28
2.9045482853924e-27
2.76563960817e-26
2.3743013000463e-25
1.8527094540169e-24
1.3113221943255e-23
8.5185554811514e-23
5.0637104153696e-22
2.6822687186022e-21
1.2864453910985e-20
6.4251317371431e-20
4.6137957660736e-19
4.903920621669e-18
5.530086861414e-17
4.5801529660509e-16
3.5082413504001e-15
2.12500029179e-14
1.3883089161844e-13
6.2431846786999e-13
1.9956816261469e-12
5.1738002393149e-12
9.7691579617541e-12
1.136244869067e-11
1.0882944062272e-11
9.1203368849164e-12
6.1156053420047e-12
3.0831099682936e-12
1.2924222714746e-12
6.6229032872168e-13
5.3698766494627e-13
5.1897254631788e-13
5.0985379525893e-13
4.9227930378264e-13
4.5186085375307e-13
3.7661845486563e-13
2.7160949964082e-13
1.636548397436e-13
8.1537510234172e-14
3.4445066900881e-14
1.3089026763305e-14
4.7957104505612e-15
1.7810375164347e-15
6.8502218585915e-16
2.7348076796818e-16
1.1253830959453e-16
4.7207598432031e-17
1.9937248246157e-17
8.3767318695733e-18
3.4646904913003e-18
1.3980888835142e-18
5.4633699879809e-19
2.0562322478472e-19
7.4339695518946e-20
2.5838965924551e-20
8.6702865752439e-21
2.8258839520482e-21
9.0022750887967e-22
2.8168966555954e-22
8.6851919945986e-23
2.643182441349e-23
7.9473904638647e-24
2.3624655352873e-24
6.9475674852243e-25
2.0226351203501e-25
5.8331532796437e-26
1.667438956221e-26
4.7270162276835e-27
1.3295893181287e-27
3.7121202701628e-28
1.0291158249174e-28
2.8339590981327e-29
7.754380220029e-30
2.1088753561179e-30
5.7019227297133e-31
1.5330836819888e-31
4.1000033354114e-32
1.0908601341496e-32
2.8880641883157e-33
7.6098877292058e-34
1.9959916671924e-34
5.2121911024498e-35
1.3552474127382e-35
3.5100917506839e-36
9.0372501061024e-37
2.3598945802824e-37
5.1865033933179e-38
2.5596308826172e-38
0
0
0
0
0
7.4714618898351e-39
7.4905578784137e-37
3.7351902780184e-35
1.2340431743829e-33
3.0368758915494e-32
5.932461306327e-31
9.5769629147629e-30
1.3135961946627e-28
1.5619840350721e-27
1.6363180869538e-26
1.5287199509125e-25
1.2878663023423e-24
9.869636724638e-24
6.8983952287086e-23
4.4309154491129e-22
2.6208941280591e-21
1.4153170116631e-20
6.8906217177848e-20
3.1221178863165e-19
1.5915635489173e-18
1.1638828668254e-17
1.0944308251671e-16
9.2411957727208e-16
7.4527487294203e-15
4.9179140751863e-14
3.332379975966e-13
1.824947288723e-12
9.8946111669548e-12
5.4920726180188e-11
1.1493944655365e-10
1.6020630004449e-10
1.2956973640646e-10
8.4345983412339e-11
4.4316102728519e-11
1.7732318131244e-11
6.3663137727182e-12
2.9941431658724e-12
2.2274905879337e-12
2.1453407586282e-12
2.1376896199636e-12
2.0980529780015e-12
1.9648400390303e-12
1.6824732328352e-12
1.2582387058577e-12
7.9603261632618e-13
4.2169047425523e-13
1.908752561552e-13
7.7668657417163e-14
3.0277834601184e-14
1.1892915627945e-14
4.8250937995463e-15
2.0303458535646e-15
8.7988830989786e-16
3.881994551869e-16
1.7222330252818e-16
7.5973594510543e-17
3.3003383394403e-17
1.3997053067095e-17
5.7495943016985e-18
2.2716380459862e-18
8.5917641323431e-19
3.1071977505605e-19
1.077741984923e-19
3.6080330570915e-20
1.1746929415313e-20
3.7442807109441e-21
1.1737989294657e-21
3.6284007586746e-22
1.1073621866334e-22
3.3391795405187e-23
9.9550701477164e-24
2.9362814288842e-24
8.5743389841062e-25
2.4804881902866e-25
7.1131348593841e-26
2.022996384036e-26
5.7086884473123e-27
1.5990484118995e-27
4.4476612749588e-28
1.2288355975076e-28
3.3735176614079e-29
9.2049982045066e-30
2.4970701209446e-30
6.7361278808563e-31
1.8074283051689e-31
4.8247496047129e-32
1.281554414058e-32
3.3878783305769e-33
8.9150385615367e-34
2.335514597105e-34
6.0936086514181e-35
1.5802196916961e-35
4.1556544020752e-36
9.1956953168683e-37
4.5742471801785e-37
0
0
0
3.714433646073e-67
1.3465904915522e-52
4.0395069416251e-38
4.0170273234019e-36
1.9848420020557e-34
6.4917268650987e-33
1.5803274605613e-31
3.0521193672238e-30
4.8681393369411e-29
6.592371918811e-28
7.7331996209696e-27
7.9821119490849e-26
7.3391481383505e-25
6.076486083893e-24
4.5719638027852e-23
3.1434273471624e-22
1.9878267028322e-21
1.1610625095771e-20
6.2683591502432e-20
3.1003711753107e-19
1.4011890926984e-18
6.0818428633198e-18
2.9951245029219e-17
1.8951311272083e-16
1.3356010582432e-15
9.2413306825255e-15
6.0954624390277e-14
3.7909074726467e-13
2.3203259679498e-12
1.3734507483932e-11
6.6737072351612e-11
4.1786547867414e-10
1.0401037710787e-09
9.9395653470617e-10
6.7395115744214e-10
2.9089070569779e-10
9.2434866310996e-11
3.3727098537687e-11
1.680253683658e-11
1.1001563457282e-11
8.4486082586358e-12
7.4036397660629e-12
6.8204600869624e-12
6.2261150394085e-12
5.3754060680137e-12
4.1987527787057e-12
2.8541572765872e-12
1.6529314576546e-12
8.2158208350408e-13
3.6461467344402e-13
1.5324123429485e-13
6.4293913188253e-14
2.7723078457941e-14
1.2364333117773e-14
5.6660941464054e-15
2.6376212998704e-15
1.2327863287828e-15
5.7269831658222e-16
2.6217534402078e-16
1.1731886748242e-16
5.088782642434e-17
2.1216889487412e-17
8.443764366877e-18
3.1960580831569e-18
1.1520023675338e-18
3.9776591491866e-19
1.3270973466546e-19
4.3153917458627e-20
1.3765537079628e-20
4.3239668749169e-21
1.3399690719637e-21
4.1003266055652e-22
1.2397350709933e-22
3.7060781658082e-23
1.0961928884175e-23
3.2103508905969e-24
9.3151543058763e-25
2.6794435648496e-25
7.644183521926e-26
2.1639185156907e-26
6.0806083329617e-27
1.6967090066095e-27
4.7029093087947e-28
1.2952622380769e-28
3.545709496262e-29
9.6497509111994e-30
2.6115684868979e-30
7.0300195424182e-31
1.8826614110434e-31
5.0168729463991e-32
1.3305147099825e-32
3.512328714732e-33
9.2327722843846e-34
2.4118512073866e-34
6.3883787950355e-35
1.4233508922556e-35
7.1385780927749e-36
0
0
0
4.227888452847e-65
9.34006599229e-51
1.8446131404156e-37
1.8277472341401e-35
8.9886596254535e-34
2.9231545337513e-32
7.0686776147322e-31
1.3549582547002e-29
2.1431950694829e-28
2.8757232618674e-27
3.3396785863691e-26
3.4086361981096e-25
3.095053712035e-24
2.5259304068086e-23
1.8696613571848e-22
1.2635396910721e-21
7.8484535763926e-21
4.5038400102479e-20
2.3994820390927e-19
1.1855229010007e-18
5.4036457719975e-18
2.2868320020903e-17
9.3737549935171e-17
4.0799663504909e-16
2.0240233320858e-15
1.094338310108e-14
6.1564473795738e-14
3.4205988098754e-13
2.1068372395625e-12
1.1981321400189e-11
5.8295899143398e-11
2.9556331919677e-10
8.837546936098e-10
3.5861033719972e-09
3.9791061826281e-09
2.9402421045718e-09
1.933032716005e-09
1.2636535056557e-09
6.8029971534801e-10
2.4320032015582e-10
5.4121643682061e-11
1.7926341071293e-11
1.4837955214399e-11
1.3686814871696e-11
1.2306324685486e-11
1.0272510064806e-11
7.6276823563171e-12
4.8834548720669e-12
2.6938825750623e-12
1.3240202874869e-12
6.1160152641011e-13
2.7913417733794e-13
1.296853460947e-13
6.1861792777706e-14
3.0156033428861e-14
1.4876602218391e-14
7.3532653327743e-15
3.6110897210739e-15
1.7490631539457e-15
8.2933600737923e-16
3.8163238089714e-16
1.6878583962506e-16
7.1089849673245e-17
2.8335188671291e-17
1.0675668160171e-17
3.8203766095253e-18
1.3107022341237e-18
4.3570717297479e-19
1.4157686024814e-19
4.5217909751529e-20
1.4234716050175e-20
4.4220549981205e-21
1.3565076353192e-21
4.1116882239413e-22
1.2323460347278e-22
3.6549802499484e-23
1.0734483825529e-23
3.1238469316741e-24
9.0125025649105e-25
2.5790244926998e-25
7.3232901346804e-26
2.0642727370767e-26
5.7782035390158e-27
1.6066658585144e-27
4.4391099440057e-28
1.219057904052e-28
3.3282989788382e-29
9.0363555227773e-30
2.4402453105593e-30
6.5559018791374e-31
1.7525694532679e-31
4.6626111042766e-32
1.2350117396631e-32
3.2502898867611e-33
8.6723981493209e-34
1.94561458991e-34
9.8414417616245e-35
0
0
0
2.3292085518799e-65
9.0201609222701e-51
7.207539353639e-37
7.1421105785502e-35
3.5084918905507e-33
1.138629961786e-31
2.7448056391449e-30
5.2394868430875e-29
8.2453564352477e-28
1.0997685603514e-26
1.268504465353e-25
1.2845188276727e-24
1.1558208188177e-23
9.3318689838844e-23
6.8191198921137e-22
4.5405720300889e-21
2.7729386864189e-20
1.5614930782336e-19
8.1582424307703e-19
3.9695093915096e-18
1.7980608770874e-17
7.5881293006193e-17
2.9960165542359e-16
1.1247577896386e-15
4.2199105277749e-15
1.6522966548346e-14
7.1447311030077e-14
3.1275074041867e-13
1.4322467834964e-12
6.6625484719723e-12
3.2208280398571e-11
1.2719566485589e-10
4.5174269907726e-10
2.4748596141594e-09
1.0629190069761e-08
5.2173072212653e-08
6.3908345041283e-08
5.1471437213608e-08
2.604124646536e-08
6.0978304229935e-09
4.55380050509e-10
3.2053733499471e-11
1.74789623584e-11
1.8587535505366e-11
1.8908443978455e-11
1.6859755558729e-11
1.3263003032021e-11
9.4862229184936e-12
6.0555719923875e-12
3.4773639347414e-12
1.8528395142481e-12
9.5323079998963e-13
4.8837161914202e-13
2.5278985371603e-13
1.3232938251413e-13
6.9664828723141e-14
3.6628184211094e-14
1.9114884440469e-14
9.844201386717e-15
4.9696190032574e-15
2.4377075107224e-15
1.1494180451315e-15
5.1516301259668e-16
2.1750823482039e-16
8.6175959533775e-17
3.2136306034295e-17
1.1385580836393e-17
3.8800666112662e-18
1.2863895574094e-18
4.1814123443798e-19
1.33799046259e-19
4.2218522287488e-20
1.3146300914049e-20
4.0422626079694e-21
1.2282281686143e-21
3.6906856651385e-22