/*--------------------------------*- C++ -*----------------------------------*\
  =========                 |
  \\      /  F ield         | OpenFOAM: The Open Source CFD Toolbox
   \\    /   O peration     | Website:  https://openfoam.org
    \\  /    A nd           | Version:  7
     \\/     M anipulation  |
\*---------------------------------------------------------------------------*/
FoamFile
{
    version     2.0;
    format      ascii;
    class       volScalarField;
    location    "2.9";
    object      alpha.water;
}
// * * * * * * * * * * * * * * * * * * * * * * * * * * * * * * * * * * * * * //

dimensions      [0 0 0 0 0 0 0];

internalField   nonuniform List<scalar> 
6000
(
0
0
0
0
0
0
0
0
0
0
0
0
0
0
0
0
0
0
0
0
0
0
0
0
0
0
0
0
0
0
0
0
0
0
0
0
0
0
0
0
0
0
0
0
0
0
0
0
0
0
0
0
0
0
0
0
0
0
0
0
0
0
0
0
0
0
0
0
0
0
0
0
0
0
0
0
0
0
0
0
0
0
0
0
0
0
0
0
0
0
0
0
0
0
0
0
0
0
0
0
0
0
0
0
0
0
0
0
0
0
0
0
0
0
0
0
0
0
0
2.7828163952845e-207
4.0475656510263e-207
6.6211082175016e-207
2.9818327204686e-207
8.9909700770795e-223
5.0680315013833e-188
3.9939609714794e-187
3.0619222889772e-203
3.0238342742547e-239
3.1895023843513e-204
1.9059810488367e-188
7.6706950588948e-188
7.654805722443e-204
1.523460418054e-188
4.9005010565612e-188
1.2268801903192e-187
2.8197213084859e-187
5.103203814962e-204
1.2758009537405e-204
1.9375621191585e-188
3.5715114105408e-188
3.3984436422657e-225
1.0575640605716e-188
1.098410752365e-242
1.4361287142676e-189
1.9934389902195e-206
2.8278374282823e-190
4.0159242432195e-190
4.9835974755489e-207
8.8866313687265e-191
0
1.7503032480543e-191
1.8747075633211e-191
3.114748422218e-208
3.336357024821e-192
7.7868710555451e-208
1.2458993688872e-207
1.0155123429822e-193
2.5915680231736e-207
1.611713449879e-194
1.0767929075121e-206
2.4377546300929e-195
2.2161405746184e-196
2.3449732853901e-196
4.1362249143512e-206
2.4866922292355e-197
1.4079789328239e-197
1.439981089695e-198
1.4116245395182e-198
1.1262039863751e-198
5.2879413589405e-199
4.0080567795512e-199
1.2363929979134e-203
4.7801690655605e-200
1.4515472577823e-203
3.8887841707277e-201
1.2795785222532e-203
5.1418705946097e-202
3.2256922541296e-202
1.3690927274715e-202
9.5886767922898e-203
4.0212837428644e-203
2.7764861341957e-203
1.1785327582931e-203
7.8181973116175e-204
4.5299036761176e-204
1.8589462493705e-204
1.172735111137e-204
4.6963933157795e-205
2.8600839343066e-205
1.1158316178137e-205
4.8424209184517e-206
2.800782622086e-206
1.0518476341203e-206
5.8702609853945e-207
2.1474661383797e-207
1.1582455250404e-207
5.4512930927537e-208
2.0483086677636e-208
1.0115532944231e-208
5.5278272021011e-209
0
0
0
0
0
0
0
0
0
0
0
0
0
0
0
0
0
0
0
1.8595580309179e-151
1.0206947377843e-147
1.3622927180441e-158
5.7669938254973e-138
9.943136011123e-122
1.6638053585509e-123
9.1295368371657e-224
7.2135169819728e-121
3.617973648096e-121
1.8287885270098e-122
4.5085312104228e-122
4.6827927210115e-122
7.30389517045e-122
1.4449294952467e-123
9.6808018084877e-123
1.0943622971961e-122
2.2303240701063e-122
1.4194190457264e-120
0
1.3992142303368e-121
4.0254027064618e-120
0
6.4099459231354e-119
4.9833100943474e-123
0
2.4393119437157e-122
-8.598881417686e-138
5.1514843787183e-121
2.9222819516647e-121
2.0772548401999e-121
1.6085294045394e-121
0
1.8281294211682e-121
4.2364643347616e-122
1.2186140310903e-122
9.541524513078e-123
0
7.1674715807159e-124
-2.0501330894675e-141
1.1847753428779e-128
2.6055910233951e-142
3.9177850116655e-130
3.5061349511454e-127
4.1963661675038e-144
1.7194330039026e-129
0
0
1.8426659101899e-130
0
3.0459103013543e-135
0
5.2536114306376e-134
2.3391325636171e-134
8.5921718133785e-134
5.3890938192337e-138
-2.4439490907997e-151
0
7.2578929494072e-137
9.6169561400478e-141
0
9.4487128809527e-140
-7.6331455920877e-156
5.2368536928621e-140
0
8.6564955707896e-145
8.358510471656e-142
5.9148210836551e-142
1.8416229916732e-142
-3.6715529023995e-159
3.096703679911e-147
2.6542274549096e-144
0
1.8773608642478e-145
0
2.6426323215116e-147
2.6949689471855e-147
1.3383666486572e-147
4.1137390061814e-148
-7.1089208052381e-165
4.9157471147498e-150
1.2363284879432e-149
0
0
0
0
0
0
0
0
0
0
0
0
0
0
0
0
0
-1.9289879564831e-89
-3.4766572625499e-88
-4.1556022324983e-87
-3.49618563775e-86
-2.1068805102463e-85
-1.015111734525e-84
4.8177741386005e-71
-3.0384927798706e-74
2.2998830560185e-73
-6.2449641687248e-75
-3.5219579501425e-76
0
-3.316121446988e-84
-7.4629434797303e-78
0
-7.3297447221156e-90
7.3297261344333e-90
2.0722595955395e-78
2.8212805136818e-63
7.3535421563969e-62
2.2454445493169e-62
1.7281156713061e-62
6.3298706324029e-63
2.8452725570471e-64
5.8867135879901e-65
3.4170285555257e-64
1.2517183968681e-63
7.0784330579971e-63
4.2589861003655e-62
2.3974541948709e-61
6.5307431802489e-61
2.625484140667e-60
9.8980153324744e-60
2.709256801542e-59
1.039156867202e-58
2.6127904279462e-58
7.3401715635782e-58
1.6081518087862e-57
3.2184464093765e-57
8.1381188943255e-57
1.5645175844661e-56
3.6794702896658e-56
7.2555192913981e-56
1.2833304806567e-55
2.6533542894129e-55
3.7574232489294e-55
5.5436104530462e-55
5.7144628701781e-55
5.6004396866808e-55
5.908213337226e-55
5.5265238468379e-55
5.3667968033367e-55
4.4914226908408e-55
3.3215720123468e-55
2.1679447353804e-55
9.4838449132739e-56
2.9984784009222e-56
3.0557364049446e-57
1.6656885797301e-58
7.6208296937984e-59
6.7896758294062e-60
8.0430440522388e-61
1.9628135360839e-61
4.0331940173544e-62
7.5150442076453e-63
4.431808176299e-63
1.6275295678579e-63
1.1582625455389e-64
5.0004705758283e-65
3.9279921715288e-66
6.1434959957839e-67
3.4680105462982e-67
1.26925782319e-67
8.3764772564138e-69
1.1692616271189e-69
6.5301119458317e-70
2.2185673290178e-70
6.2976053479542e-71
1.6401621080787e-71
4.0758718791376e-72
1.0004779870909e-72
2.0541242242609e-73
9.4365864904019e-74
0
0
0
0
0
0
0
0
0
5.5349503633044e-71
5.133162158939e-69
1.6660625540786e-67
4.014422951775e-66
7.118793821041e-65
9.6258541086937e-64
2.0076822640986e-62
2.7202565345843e-61
3.204670639228e-60
2.8360275112709e-59
2.1886633698635e-58
3.6337705872501e-57
1.5557273448855e-56
8.5107185540301e-56
6.0480153346022e-55
1.0159802849713e-54
2.8016024924884e-55
-2.0740984941308e-64
0
0
-5.6597994242668e-74
5.4530950948411e-53
0
0
2.1081009281922e-52
0
3.8387154352991e-48
8.7111831475102e-47
2.792421072982e-47
2.538610062174e-47
4.9528881361884e-63
8.0569892322773e-64
3.0429507991815e-49
2.5795477969491e-53
1.3695297863845e-63
2.2313268519744e-50
4.7426872381686e-62
2.3120183364898e-54
5.390537963381e-61
5.7657344777917e-51
2.5482509749059e-47
1.486984119133e-51
3.5650315993285e-49
2.851338743065e-58
1.2250027960439e-45
9.8806898899869e-50
3.489273822971e-57
4.046514845916e-47
1.6956177395555e-56
7.9513569150549e-48
7.8295981818777e-56
1.1764124768827e-55
7.1189065126811e-49
4.0210441706595e-55
1.3414060989953e-49
6.0862828543673e-55
5.9875928882875e-55
5.0159008065208e-51
5.9152148286733e-55
9.462437058523e-52
4.4213287988367e-55
3.5513855240563e-55
1.0779910337634e-51
2.061755664311e-55
1.4710492624132e-52
5.3642884952605e-57
1.035602417921e-57
1.8416208021239e-53
1.3842125811139e-57
7.5968795317632e-60
4.6603248762446e-59
2.8838828261322e-61
5.5117871845787e-62
1.4644660399783e-56
5.1464036349121e-57
5.7677994722599e-64
1.0363849477531e-56
1.6485090103569e-59
4.4287970189413e-66
1.4677182278338e-59
1.2869163724332e-59
4.5401182408719e-68
4.0744006712662e-62
1.1469911416679e-60
5.1851298715786e-61
2.0829744998442e-61
1.8492836831076e-61
2.6476240968418e-62
3.0555114065573e-62
3.365234502396e-63
3.8875695861748e-63
0
0
0
0
0
0
0
1.2362945664433e-61
1.6152402901381e-59
1.0371059590277e-57
4.3663232989422e-56
1.3584813222963e-54
3.3386067204419e-53
6.7535557265784e-52
1.1540958721193e-50
1.6944951310664e-49
2.165721893453e-48
2.4422896355151e-47
2.4707739458808e-46
2.2874813810578e-45
1.9784494270351e-44
1.6255882671504e-43
1.2803599732091e-42
9.6740072137406e-42
6.9778709060007e-41
4.7723613708567e-40
3.0759779456266e-39
1.8602978027225e-38
1.0529978765079e-37
5.5723113140014e-37
2.7564361776289e-36
1.275174469271e-35
5.5214328869369e-35
2.2398423005929e-34
8.5214750054089e-34
3.0436243012355e-33
1.0215961911178e-32
3.2254722892128e-32
9.5880079587699e-32
2.685746397494e-31
7.0953746190627e-31
1.7694177819286e-30
4.1687576482436e-30
9.2873217653396e-30
1.9582911436836e-29
3.9116409573614e-29
7.4078380380369e-29
1.3308812577899e-28
2.2687341654283e-28
3.6678023550375e-28
5.6150516272715e-28
8.1125797799045e-28
1.0971497953993e-27
1.3617529956873e-27
1.5085113677881e-27
1.5255625334517e-27
1.5077305025376e-27
1.446079869043e-27
1.3126359829633e-27
1.0991341727464e-27
8.2992942259038e-28
5.5109498442748e-28
3.1301499665475e-28
1.4803076187616e-28
5.745041622175e-29
1.8614106482792e-29
5.3444600561859e-30
1.4726626697646e-30
4.11498463149e-31
1.1822111779091e-31
3.4640633249074e-32
1.0256036056013e-32
3.055315055833e-33
9.1524256750901e-34
2.7571032749955e-34
8.3456890371447e-35
2.5335204209798e-35
7.693190557596e-36
2.3305876805358e-36
7.0285994573818e-37
2.1071310296516e-37
6.274772634522e-38
1.8554857585285e-38
5.4481874408654e-39
1.588582343268e-39
4.6001930091442e-40
1.3231418697367e-40
3.7806564131045e-41
1.0733357173808e-41
3.0282815080288e-42
8.4925345844723e-43
2.3678112575189e-43
6.5646498869689e-44
1.8101618234831e-44
4.9650353468677e-45
1.3554722547576e-45
3.6710165877301e-46
1.0144494607913e-46
2.2580261631622e-47
1.2597065246433e-47
0
0
0
0
0
0
1.1069997284001e-61
2.1605970430069e-59
1.8746079232509e-57
1.0104679810378e-55
3.8827059595057e-54
1.1476912691231e-52
2.74021811091e-51
5.4588191764329e-50
9.2718067427441e-49
1.364224857052e-47
1.7612874384795e-46
2.0158721669213e-45
2.0636094024788e-44
1.9102819380578e-43
1.6246450407166e-42
1.2936345784711e-41
9.8008453050785e-41
7.1268801460828e-40
4.9801487768662e-39
3.3327473642095e-38
2.1247311765239e-37
1.2836091163164e-36
7.3150130337305e-36
3.9189623522126e-35
1.9693538839077e-34
9.270986961443e-34
4.0865520015482e-33
1.6866434801006e-32
6.5204709827185e-32
2.362495939347e-31
8.0279769531615e-31
2.5605555342539e-30
7.6726581999058e-30
2.1621064899578e-29
5.7361008934093e-29
1.4345281197954e-28
3.3864370520398e-28
7.5565626576023e-28
1.5959843353439e-27
3.1940756364971e-27
6.0621866506597e-27
1.0916281943353e-26
1.8650420360701e-26
3.0216068810388e-26
4.6357657716615e-26
6.7146588585691e-26
9.1169102515749e-26
1.1401708185012e-25
1.2771413446491e-25
1.298904664731e-25
1.286656920865e-25
1.2403459404165e-25
1.1363404680894e-25
9.6379173185056e-26
7.4054967436327e-26
5.0325117338148e-26
2.94708622276e-26
1.4497888286708e-26
5.9008579617348e-27
2.0106900977009e-27
6.0317964845303e-28
1.7142721752563e-28
4.8885635406114e-29
1.4278750673868e-29
4.2575597809514e-30
1.2858370020715e-30
3.9163417857777e-31
1.2014417407931e-31
3.7101940640894e-32
1.1516460456065e-32
3.5836175935759e-33
1.1142545171234e-33
3.4510281555144e-34
1.0621161068376e-34
3.2436040185291e-35
9.8232513395989e-36
2.9500695322861e-36
8.7871178243082e-37
2.5966399200991e-37
7.6144070998429e-38
2.2162601430316e-38
6.4042417700729e-39
1.8377397140962e-39
5.2381770388084e-40
1.4834293304412e-40
4.174954096005e-41
1.1679851086274e-41
3.2488111116577e-42
8.9863395501331e-43
2.4733694647357e-43
6.7515589186829e-44
1.8803214202033e-44
4.2121762902369e-45
2.3741305760817e-45
0
0
0
0
0
5.0787806306109e-62
1.329497110384e-59
1.4971850324467e-57
1.0090780914332e-55
4.7203107160957e-54
1.6640891065874e-52
4.659762776117e-51
1.0752450688231e-49
2.0976759873391e-48
3.5234172576531e-47
5.1683804394302e-46
6.6955936242831e-45
7.7255245258098e-44
8.0019247026704e-43
7.4937675357021e-42
6.3917215789041e-41
5.0227213004778e-40
3.7066359366698e-39
2.6223380985382e-38
1.7966012374757e-37
1.1878157148875e-36
7.5094893566326e-36
4.5073600132579e-35
2.5591941654807e-34
1.3721794021685e-33
6.9389179770598e-33
3.304708449404e-32
1.4800188538187e-31
6.2236609583786e-31
2.4541456603481e-30
9.0650324876826e-30
3.1340623918264e-29
1.0136494967593e-28
3.0662453417745e-28
8.6756899963652e-28
2.2971841355911e-27
5.6981286547068e-27
1.3263802877111e-26
2.9048917945864e-26
6.0067290532427e-26
1.1776544795662e-25
2.1986126324412e-25
3.9224498497929e-25
6.6984951407963e-25
1.0941202200567e-24
1.7037073003106e-24
2.5152222211689e-24
3.4903892218885e-24
4.4778798175606e-24
5.1592225838276e-24
5.3309142259299e-24
5.2961128687084e-24
5.1409721900561e-24
4.7697711775226e-24
4.1093072747057e-24
3.2204450836997e-24
2.2423693141899e-24
1.3537018473243e-24
6.9160670320878e-25
2.9441754711763e-25
1.0523983195323e-25
3.2962369851094e-26
9.6756911098911e-27
2.8215544778207e-27
8.3907235920581e-28
2.5478928138774e-28
7.8532214920306e-29
2.4467584803302e-29
7.6924938095582e-30
2.4374182865427e-30
7.7660681364747e-31
2.4795682789039e-31
7.9014245061696e-32
2.5037254560751e-32
7.8678902770008e-33
2.448483415653e-33
7.5428383802572e-34
2.3008008422551e-34
6.952526510929e-35
2.082276924225e-35
6.1836467350505e-36
1.8214242019175e-36
5.323236498606e-37
1.5440972974424e-37
4.4467570829201e-38
1.2717873628218e-38
3.6133881107363e-39
1.0201467351483e-39
2.8626838345671e-40
7.9859786992975e-41
2.2162350963022e-41
6.0980828745823e-42
1.7118075857069e-42
3.8591947013055e-43
2.1984261842603e-43
0
0
0
0
0
3.3553645506759e-60
6.3090441997182e-58
5.7184401534149e-56
3.3310928322168e-54
1.4080106066439e-52
4.620935826978e-51
1.2298814708724e-49
2.738195981378e-48
5.2118306289533e-47
8.6181580814071e-46
1.2540880910177e-44
1.6212212617916e-43
1.8762751897524e-42
1.9575390756074e-41
1.8521621916681e-40
1.5954929432838e-39
1.2589653254401e-38
9.1947757957537e-38
6.3289820559698e-37
4.2160380805801e-36
2.7822161577605e-35
1.8292566945534e-34
1.1848441991537e-33
7.4326763985799e-33
4.4479181639442e-32
2.5109527222116e-31
1.3270317843775e-30
6.5334777863737e-30
2.9875191234314e-29
1.2665552843748e-28
4.9737547299895e-28
1.8083669789626e-27
6.085194712757e-27
1.8942319293992e-26
5.4503564700615e-26
1.4479408126656e-25
3.5461791129703e-25
7.9942414897861e-25
1.657312926938e-24
3.1627377810885e-24
5.5809297709092e-24
9.1923322338758e-24
1.4334372918007e-23
2.1509797191235e-23
3.1492978975586e-23
4.5302202142613e-23
6.3865471351883e-23
8.7186097820257e-23
1.1275076170933e-22
1.3341225820129e-22
1.4113757865507e-22
1.4078450982716e-22
1.3768961955623e-22
1.2938646846813e-22
1.1344408592502e-22
9.0802044184189e-23
6.4834985970809e-23
4.0342173756063e-23
2.1375206412118e-23
9.4944999480934e-24
3.5517812347752e-24
1.1604331569749e-24
3.5216886425312e-25
1.0521765408634e-25
3.1909245112186e-26
9.8784378705712e-27
3.1098765557464e-27
9.9190459959734e-28
3.1987862640975e-28
1.0410205908189e-28
3.4084068687908e-29
1.1177964092986e-29
3.6540970196782e-30
1.1855875933562e-30
3.8065504272333e-31
1.2076950578054e-31
3.7857036456011e-32
1.1731526701348e-32
3.596967554382e-33
1.0919892506214e-33
3.2844110698211e-34
9.7916787445983e-35
2.8946271485801e-35
8.4884572600276e-36
2.4701619760852e-36
7.1356972643327e-37
2.0469490945476e-37
5.8327372310709e-38
1.6514340718316e-38
4.6469331836124e-39
1.3004368423557e-39
3.6072910991359e-40
1.0207867780665e-40
2.3159919363864e-41
1.3339716181886e-41
0
0
0
0
9.4492048747034e-71
1.0726642374701e-58
1.7635032385098e-56
1.431985301618e-54
7.6391952825745e-53
3.0103070081436e-51
9.3449897401253e-50
2.380658707732e-48
5.1226495747505e-47
9.5008346098148e-46
1.5419990990173e-44
2.2169598070813e-43
2.8470390935968e-42
3.2903739316305e-41
3.4429761668716e-40
3.2762895534966e-39
2.8496270411618e-38
2.2726926473708e-37
1.6639896726857e-36
1.1285393697652e-35
7.3146935604454e-35
4.7636330672741e-34
3.2491320717603e-33
2.3284555000986e-32
1.6953893159377e-31
1.2022282918444e-30
8.0441496198026e-30
4.985115219949e-29
2.8336595055549e-28
1.4704720503052e-27
6.9521308756889e-27
2.9930301088114e-26
1.1733922793221e-25
4.1910408021109e-25
1.3644196663259e-24
4.0480899655602e-24
1.0938513709026e-23
2.6903980421918e-23
6.0173967259697e-23
1.2204300023964e-22
2.231264585574e-22
3.6484869859876e-22
5.3167395583014e-22
6.9854043435501e-22
8.5339267343961e-22
1.007189269641e-21
1.1854323255006e-21
1.4183129756167e-21
1.7299147026039e-21
2.1150308431634e-21
2.4933704695982e-21
2.6983388778122e-21
2.7115446888871e-21
2.6715410017753e-21
2.5407303399563e-21
2.2695282316914e-21
1.8574463451086e-21
1.3615002050591e-21
8.7347968074492e-22
4.7967066174283e-22
2.2196535246153e-22
8.6750012080537e-23
2.9544816098731e-23
9.2785726828598e-24
2.8454500873009e-24
8.815770996157e-25
2.7860787864872e-25
8.9676189449379e-26
2.9308759197237e-26
9.7048486411653e-27
3.2474908283485e-27
1.0938426543875e-27
3.6888448560468e-28
1.2383790737838e-28
4.1180179113425e-29
1.3519452569309e-29
4.3757242129904e-30
1.3963796609892e-30
4.3977699528303e-31
1.3685175067309e-31
4.2122232018531e-32
1.2834073696118e-32
3.8732346633612e-33
1.1583909959724e-33
3.4348115786909e-34
1.0101845868425e-34
2.9479705416554e-35
8.5395275880676e-36
2.4563154239281e-36
7.0180552616242e-37
1.9922158114467e-37
5.6228552128812e-38
1.5726172228504e-38
4.4867875369917e-39
1.0244507042309e-39
5.9688219677765e-40
0
0
0
0
2.1801780352e-70
2.2160717656099e-57
3.3979424362024e-55
2.5915273175523e-53
1.3084132660608e-51
4.914859232202e-50
1.4640489148672e-48
3.6006091221108e-47
7.5202683800426e-46
1.3607526900946e-44
2.1655027863464e-43
3.0678028710944e-42
3.8998470741996e-41
4.4826752206574e-40
4.6853533219831e-39
4.4657746096297e-38
3.9062563404394e-37
3.1457852694778e-36
2.3261180952283e-35
1.5767359332534e-34
9.9987754853468e-34
6.3405510310497e-33
4.3712425268888e-32
3.3585760223513e-31
2.73566245691e-30
2.1966390825795e-29
1.6480278527484e-28
1.1235822678295e-27
6.8915094319006e-27
3.7986655004991e-26
1.8858636298434e-25
8.4561468698852e-25
3.4328403657072e-24
1.2640632657814e-23
4.2276874880434e-23
1.2850691224098e-22
3.5502527759325e-22
8.910566097183e-22
2.0293337233295e-21
4.1822704292314e-21
7.7565180511959e-21
1.2821866730207e-20
1.8698136854851e-20
2.3763624416999e-20
2.6384821355702e-20
2.7339362912719e-20
2.7990664590765e-20
2.8967337604589e-20
3.0742909882742e-20
3.3615258963633e-20
3.7299497186481e-20
4.0157318119504e-20
4.0652520665957e-20
4.0244373460773e-20
3.8683662636372e-20
3.515729996895e-20
2.9405271409154e-20
2.2112501709281e-20
1.4609691348987e-20
8.3001133040201e-21
3.9931080121779e-21
1.6280060972821e-21
5.7795407530798e-22
1.8813112692848e-22
5.9359285431248e-23
1.8827912380189e-23
6.0839510183475e-24
2.0046279775091e-24
6.7209736579183e-25
2.2876381593374e-25
7.88014940784e-26
2.73380392075e-26
9.4915414932834e-27
3.2760032890417e-27
1.1177251084117e-27
3.7558916418617e-28
1.2412075899958e-28
4.0352218872522e-29
1.2922693588979e-29
4.0830487902091e-30
1.2745660117207e-30
3.9349887231161e-31
1.2024434227178e-31
3.6390553540155e-32
1.0912932367572e-32
3.2443723568652e-33
9.5664580069249e-34
2.7988834417019e-34
8.1282901022907e-35
2.3439668435825e-35
6.71364248181e-36
1.9113779641972e-36
5.3907998731369e-37
1.550947947668e-37
3.5636809915482e-38
2.1013237785746e-38
0
0
0
0
2.4885214590093e-72
3.3328289879872e-56
4.9079771350208e-54
3.6029078761976e-52
1.7556456454262e-50
6.3832167133067e-49
1.8456826512881e-47
4.4184194283338e-46
9.0066373764818e-45
1.5948964131361e-43
2.4911807597978e-42
3.4746847692716e-41
4.3634737630669e-40
4.9727432950941e-39
5.1730598293937e-38
4.9225312847853e-37
4.311451287968e-36
3.49006389309e-35
2.6072284468779e-34
1.7849610240127e-33
1.1211861382998e-32
6.8611229512294e-32
4.6112156259968e-31
3.6321498306304e-30
3.1489470720251e-29
2.7176654113709e-28
2.1879094948479e-27
1.5947908728539e-26
1.0396839848405e-25
6.039930390342e-25
3.1335563115976e-24
1.4595562992783e-23
6.1376999618964e-23
2.340037381384e-22
8.1083413189093e-22
2.5555776245507e-21
7.3236409949534e-21
1.906020235208e-20
4.4961600611944e-20
9.5828075407269e-20
1.8361205908048e-19
3.1360663724014e-19
4.6945372781263e-19
5.9756347974944e-19
6.4283749168357e-19
6.4035470788383e-19
6.2241992892085e-19
5.8105253535879e-19
5.1956163240462e-19
4.8934831964946e-19
4.9313408390913e-19
5.0191901900733e-19
5.0393365082837e-19
4.994849313425e-19
4.8135319114119e-19
4.4014011452212e-19
3.7308583089753e-19
2.8648978277201e-19
1.9469601794932e-19
1.1452963262001e-19
5.7374446190751e-20
2.4439852518597e-20
9.0566105534467e-21
3.0599579138535e-21
9.9479976985235e-22
3.2347429999042e-22
1.0700151513592e-22
3.6130797943709e-23
1.2440004461379e-23
4.3572433411625e-24
1.5467784669607e-24
5.5332433655587e-25
1.9801297869727e-25
7.0352299482892e-26
2.4658792217886e-26
8.4916777544731e-27
2.8685177924117e-27
9.509729174602e-28
3.0991427144158e-28
9.9480337642002e-29
3.1507993303431e-29
9.8600598324307e-30
3.0516911732653e-30
9.3481185553959e-31
2.8359113436538e-31
8.5246905119816e-32
2.5403709508975e-32
7.5084131544757e-33
2.2019921001125e-33
6.4102048467254e-34
1.8528732547241e-34
5.3220407614914e-35
1.5138983714528e-35
4.3928885423418e-36
1.0157536337696e-36
6.0645800722216e-37
0
0
0
0
0
3.8966203160472e-55
5.5983205819552e-53
4.0115116708425e-51
1.909713029978e-49
6.7904148598121e-48
1.9222992428067e-46
4.5106353740613e-45
9.0222684620812e-44
1.5696360424566e-42
2.4121021255172e-41
3.3152617377443e-40
4.1109673113644e-39
4.6369556058713e-38
4.7879693485579e-37
4.5364928753863e-36
3.9653408725743e-35
3.2117156238771e-34
2.4132176230653e-33
1.673160486766e-32
1.0572723448217e-31
6.2742050784113e-31
3.9774031558795e-30
3.048326773764e-29
2.696073110443e-28
2.4212574519339e-27
2.0397016265763e-26
1.5579134734969e-25
1.0664315581212e-24
6.5400589368781e-24
3.5943984253968e-23
1.7698383494908e-22
7.8212096119612e-22
3.114295555633e-21
1.1220845652143e-20
3.6690385580263e-20
1.0901714659645e-19
2.9431078183483e-19
7.2098088836136e-19
1.5983433305227e-18
3.1923552282924e-18
5.7016169054534e-18
8.9619184414079e-18
1.1943170908783e-17
1.3141714877768e-17
1.308441002275e-17
1.259795430646e-17
1.1398835801196e-17
9.448953210957e-18
7.4394455707014e-18
6.102213962157e-18
5.535052182573e-18
5.3183845394073e-18
5.153650393989e-18
4.9131912936914e-18
4.5051041313397e-18
3.8737210686912e-18
3.0433544546005e-18
2.1306670189733e-18
1.2992538437289e-18
6.7837179056922e-19
3.0214099742806e-19
1.169509353389e-19
4.1047027437016e-20
1.3763030099325e-20
4.5926308571562e-21
1.5567844866816e-21
5.3925451019983e-22
1.9085706755565e-22
6.8858364430133e-23
2.5215599309934e-23
9.3109249367229e-24
3.4383798523357e-24
1.2591661620838e-24
4.5405198561048e-25
1.6048073545797e-25
5.5494014871873e-26
1.8784314278245e-26
6.2359417137333e-27
2.0351645983136e-27
6.5439205136711e-28
2.076650063653e-28
6.5120509507023e-29
2.0197426946866e-29
6.2001895029947e-30
1.8849734932288e-30
5.678485399721e-31
1.6959172979854e-31
5.0236858123047e-32
1.4766354898575e-32
4.3082355503343e-33
1.2486959947813e-33
3.583125525647e-34
1.0488328732649e-34
2.4404431638504e-35
1.476154494239e-35
0
0
0
0
0
3.692940404967e-54
5.2247080380918e-52
3.6860439765772e-50
1.7278277561084e-48
6.0506698703275e-47
1.6874722330581e-45
3.9022496886572e-44
7.6946988975964e-43
1.3202185906126e-41
2.0018254072488e-40
2.7162643835112e-39
3.3285962614636e-38
3.7147623868196e-37
3.8015711589992e-36
3.5791510821736e-35
3.1147712549349e-34
2.516168808647e-33
1.8919307751328e-32
1.322570788197e-31
8.4842182088343e-31
4.9820966449006e-30
2.9461043149096e-29
2.0750107646265e-28
1.7820460890968e-27
1.626315505276e-26
1.4129623292293e-25
1.1187471314406e-24
7.998697581345e-24
5.1475536697974e-23
2.9860045527634e-22
1.5651175284377e-21
7.4038250194029e-21
3.1528023449531e-20
1.2088504310631e-19
4.1879746188008e-19
1.3155554863111e-18
3.7509848051229e-18
9.6907008217157e-18
2.2597088701608e-17
4.7280597378205e-17
8.7987072382796e-17
1.4325948336827e-16
1.9620633353516e-16
2.1884948357195e-16
2.1796141800592e-16
2.0908235852074e-16
1.8655467973176e-16
1.4871279999636e-16
1.0637746526028e-16
7.3504719417952e-17
5.596223932699e-17
4.8759576412607e-17
4.5303497245387e-17
4.2417050510432e-17
3.8783517365591e-17
3.3698442406269e-17
2.70552984945e-17
1.9531104547213e-17
1.2368557022444e-17
6.7424465494705e-18
3.1432270445589e-18
1.2713301376784e-18
4.6357622045036e-19
1.6035701906856e-19
5.4942715536052e-20
1.9098672579788e-20
6.791952355514e-21
2.4731105614824e-21
9.1985399474755e-22
3.4778707714096e-22
1.3268912252843e-22
5.0622572933947e-23
1.9134588193822e-23
7.1100520009847e-24
2.5837675408877e-24
9.1623070269031e-25
3.1716987701246e-25
1.0740152290817e-25
3.5673969690172e-26
1.1653755289168e-26
3.752244867881e-27
1.1926661134154e-27
3.7466463465281e-28
1.164201156336e-28
3.5807103613981e-29
1.0907463952995e-29
3.2925144104952e-30
9.8536798991029e-31
2.9250913369684e-31
8.6160232907613e-32
2.5204175117314e-32
7.2969539253794e-33
2.1550638794376e-33
5.0458064595573e-34
3.0937579679422e-34
0
0
0
5.6503706085653e-82
1.3497072749484e-67
2.9200293026317e-53
4.0923051257152e-51
2.8586813398346e-49
1.326406939203e-47
4.5970064245847e-46
1.2687321649978e-44
2.9033280131159e-43
5.6649118724238e-42
9.617434364783e-41
1.4429526890103e-39
1.9372929267474e-38
2.3496754048797e-37
2.5963079133012e-36
2.6324085452305e-35
2.4597072036157e-34
2.1275902748576e-33
1.7105764545755e-32
1.2825954188883e-31
8.9824340635194e-31
5.8381815595277e-30
3.4621065092877e-29
1.9525877162225e-28
1.219632383892e-27
9.5007520757732e-27
8.4786610910092e-26
7.4944176934386e-25
6.1364556951819e-24
4.5668646286639e-23
3.0721546851941e-22
1.8713124376373e-21
1.0360355612801e-20
5.2316789466654e-20
2.4152368220321e-19
1.0186187110688e-18
3.8928807762459e-18
1.3394078360547e-17
4.1424184875577e-17
1.1495695401375e-16
2.8509657275445e-16
6.2747240047791e-16
1.2140756175549e-15
2.0242847922135e-15
2.7874845453618e-15
3.0785129229844e-15
3.0515109865181e-15
2.8914866782265e-15
2.5145625075956e-15
1.9130739958599e-15
1.2655001035283e-15
7.6883507347102e-16
4.9864749558791e-16
3.8693036891869e-16
3.4090110979448e-16
3.1263330597723e-16
2.8468720033168e-16
2.4955613678389e-16
2.0449128096946e-16
1.5213924486971e-16
1.0006338143403e-16
5.6967768742401e-17
2.7810944926861e-17
1.1764766896184e-17
4.4632708776822e-18
1.5952802838183e-18
5.6190095345973e-19
2.0044806928063e-19
7.3221028530885e-20
2.7443065477291e-20
1.0529258109736e-20
4.1134215310598e-21
1.6230485453097e-21
6.4047054458495e-22
2.5024122362598e-22
9.5987887483887e-23
3.5936451856666e-23
1.3095496789364e-23
4.645148161157e-24
1.6071431903861e-24
5.4400232139024e-25
1.8071627518446e-25
5.9075646542601e-26
1.9042237007783e-26
6.0611232834677e-27
1.9070368606696e-27
5.9357229482417e-28
1.8288549586936e-28
5.581233253892e-29
1.6879543442465e-29
5.0616320836848e-30
1.505534785243e-30
4.4458030129382e-31
1.2988575295925e-31
3.8711427157662e-32
9.1200500741603e-33
5.6714762016664e-33
0
0
0
2.6424892855198e-79
3.5960928252156e-66
1.966952322575e-52
2.7416124328695e-50
1.9037002635878e-48
8.7761179430048e-47
3.0208598238619e-45
8.278167274486e-44
1.8804828945867e-42
3.6413778767782e-41
6.1338428356926e-40
9.1289762534841e-39
1.2154093452636e-37
1.4616189514338e-36
1.6010764017231e-35
1.6092046842263e-34
1.4917118926717e-33
1.2812159688614e-32
1.0237700382732e-31
7.6380952988076e-31
5.3344407238047e-30
3.4856998727569e-29
2.0999663827552e-28
1.1709806648875e-27
6.6034504786988e-27
4.3952651390178e-26
3.5663827401246e-25
3.1001641916267e-24
2.6035481512192e-23
2.0159809484695e-22
1.4199582705623e-21
9.0613069868455e-21
5.2636358094426e-20
2.8180601637789e-19
1.4024018271657e-18
6.4425491743078e-18
2.7351095431254e-17
1.0617964650258e-16
3.660930370773e-16
1.1071898535591e-15
2.9369871315719e-15
6.8228692014657e-15
1.3764196937121e-14
2.360945298171e-14
3.278049899494e-14
3.589266492017e-14
3.5397831048029e-14
3.3048562369941e-14
2.7828166909125e-14
2.0027636248504e-14
1.2191098479544e-14
6.5844136597845e-15
3.7124591503343e-15
2.5893988974056e-15
2.1732202589253e-15
1.9616527360823e-15
1.7850691708809e-15
1.580412255941e-15
1.3206683250103e-15
1.0108267547044e-15
6.891885794541e-16
4.0935155852545e-16
2.0941258272446e-16
9.291093364477e-17
3.6829941428678e-17
1.3659397396764e-17
4.9602321380317e-18
1.8184705374033e-18
6.8270939019945e-19
2.6347377245623e-19
1.04324433385e-19
4.2138394022618e-20
1.7210417668446e-20
7.0327782512505e-21
2.844721018776e-21
1.1285947876931e-21
4.3628550992067e-22
1.6377013267048e-22
5.9663724021098e-23
2.1133970658212e-23
7.3017508333561e-24
2.4695041516856e-24
8.2026640930187e-25
2.6828002209977e-25
8.6559831076792e-26
2.7586353471451e-26
8.6919764824184e-27
2.7095810785221e-27
8.362161057592e-28
2.5563402732439e-28
7.745311448952e-29
2.3268351278649e-29
6.9375489470663e-30
2.0456874337841e-30
6.1540696040933e-31
1.4587578552568e-31
9.2063047334864e-32
0
0
0
4.1433292933983e-98
7.6440277466706e-65
1.1463613590554e-51
1.5937532940784e-49
1.1031904029063e-47
5.0671072127545e-46
1.7369478415435e-44
4.738246416343e-43
1.0711003998507e-41
2.063233003262e-40
3.4561434341072e-39
5.1133218924002e-38
6.7644975080558e-37
8.0802766266211e-36
8.7881492072948e-35
8.7656329286552e-34
8.0641644326589e-33
6.8757174903616e-32
5.4561602304773e-31
4.0449327681624e-30
2.8098800471434e-29
1.8334166277027e-28
1.1152545872528e-27
6.2771819499434e-27
3.3699653526475e-26
1.9268659337681e-25
1.3143735723883e-24
1.0402934561017e-23
8.6213544783061e-23
6.8524044280211e-22
5.0593996832302e-21
3.4041076065106e-20
2.0823017227143e-19
1.1780867496769e-18
6.2273243747763e-18
3.0899691329844e-17
1.4195255464798e-16
5.9550405958882e-16
2.3396194767197e-15
8.2541730602963e-15
2.4612114965313e-14
6.1510331638287e-14
1.2878924606859e-13
2.2232022906012e-13
3.021144767566e-13
3.2299748012154e-13
3.1646507607288e-13
2.9050122528576e-13
2.3631004129746e-13
1.6186298751574e-13
9.2346076597498e-14
4.5986581346499e-14
2.3392927060144e-14
1.4815696109029e-14
1.1826765378864e-14
1.0513639604112e-14
9.5704133157572e-15
8.5561938519439e-15
7.2809122804937e-15
5.7212256468307e-15
4.0364080859539e-15
2.4996392725231e-15
1.3416959593352e-15
6.2652243240729e-16
2.6085861982812e-16
1.0094764756599e-16
3.7961682612832e-17
1.4342887047743e-17
5.5429988491453e-18
2.2047188764197e-18
9.0154914090022e-19
3.767666430332e-19
1.5941847505029e-19
6.7534979037596e-20
2.8323739443592e-20
1.1645070568012e-20
4.6593142245133e-21