/*--------------------------------*- C++ -*----------------------------------*\
  =========                 |
  \\      /  F ield         | OpenFOAM: The Open Source CFD Toolbox
   \\    /   O peration     | Website:  https://openfoam.org
    \\  /    A nd           | Version:  7
     \\/     M anipulation  |
\*---------------------------------------------------------------------------*/
FoamFile
{
    version     2.0;
    format      ascii;
    class       surfaceScalarField;
    location    "2.9";
    object      alphaPhi0.water;
}
// * * * * * * * * * * * * * * * * * * * * * * * * * * * * * * * * * * * * * //

dimensions      [0 3 -1 0 0 0 0];

internalField   nonuniform List<scalar> 
11840
(
0
0
0
0
0
0
0
0
0
0
0
0
0
0
0
0
0
0
0
0
0
0
0
0
0
0
0
0
0
0
0
0
0
0
0
0
0
0
0
0
0
0
0
0
0
0
0
0
0
0
0
0
0
0
0
0
0
0
0
0
0
0
0
0
0
0
0
0
0
0
0
0
0
0
0
0
0
0
0
0
0
0
0
0
0
0
0
0
0
0
0
0
0
0
0
0
0
0
0
0
0
0
0
0
0
0
0
0
0
0
0
0
0
0
0
0
0
0
0
0
0
0
0
0
0
0
0
0
0
0
0
0
0
0
0
0
0
0
0
0
0
0
0
0
0
0
0
0
0
0
0
0
0
0
0
0
0
0
0
0
0
0
0
0
0
0
0
0
0
0
0
0
0
0
0
0
0
0
0
0
0
0
0
0
0
0
0
0
0
0
0
0
0
0
0
0
0
0
0
0
0
0
0
0
0
0
0
0
0
0
0
0
0
0
0
0
0
0
0
0
0
0
0
0
0
0
0
0
0
0
0
0
0
0
0
0
0
1.2368072867931e-209
-3.0425453507643e-233
2.0237828255131e-209
1.0118914127566e-209
3.3105541086968e-209
1.6552770541323e-209
1.7805801102227e-209
2.0489450550649e-209
3.2374183822231e-210
1.4568382720004e-209
2.5340157506916e-190
1.2670078753458e-190
1.9805184736433e-189
9.2441118843626e-190
3.6009426793515e-190
1.6204242057082e-189
6.547168507912e-191
2.9462258285603e-190
1.1903942741658e-191
5.3567742337462e-191
8.4710268837189e-191
0
3.4091978039533e-190
0
6.1985414617333e-191
2.7893436577799e-190
7.61730209027e-191
3.808651045135e-191
2.1780004695828e-190
0
5.4528008458631e-190
0
1.2532094704382e-189
0
2.278562673524e-190
1.0253532030858e-189
4.1428412245891e-191
1.8642785510651e-190
8.6113871962601e-191
0
1.5873384046848e-190
0
2.8860698266997e-191
1.2987314220148e-190
4.7002847136516e-191
0
8.5459722066394e-192
3.8456874929876e-191
7.1806435713382e-192
3.5903217856691e-192
1.3055715584251e-192
5.875072012913e-192
1.338150051144e-192
3.6600037358327e-193
1.7848552192087e-192
0
3.2451913076521e-193
1.4603360884434e-192
3.9496139416562e-193
0
7.1811162575569e-194
3.2315023159005e-193
7.8884148625849e-194
4.918019205455e-195
8.3320336147603e-194
0
1.5149152026837e-194
6.8171184120766e-194
1.4828253443649e-194
0
2.6960460806635e-195
1.2132207362985e-194
4.9019019648428e-196
2.2058558841792e-195
4.5133881910322e-196
0
8.2061603473324e-197
3.692772156299e-196
7.1631708883513e-197
0
1.3023947069776e-197
5.8607761813776e-197
1.0834465022635e-197
0
1.9699027317201e-198
4.4322811435036e-198
1.172486642695e-198
5.8624332134751e-199
2.1317938974507e-199
9.5930725302557e-199
1.2433461146177e-199
6.2167305730887e-200
7.0398946641193e-200
3.5199473320596e-200
1.279981495446e-200
2.8799545501171e-200
7.0581226975911e-201
3.5290613487955e-201
5.005351050556e-201
0
2.6439706794702e-201
1.3219853397351e-201
1.7813585686894e-201
0
3.2393275705906e-202
1.4574501281662e-201
2.1245195846936e-202
0
3.868292536077e-203
1.7378285467191e-202
1.9443920853638e-203
9.7219604268191e-204
3.5853790193536e-204
1.587828988264e-203
2.2852758198265e-204
0
1.4336410018354e-204
0
6.9139182737312e-205
3.7307776823599e-205
4.2616341299066e-205
0
2.0364032204099e-205
1.1212470061158e-205
1.2339938374203e-205
0
5.8926637914654e-206
2.9463318957327e-206
3.4747543607189e-206
0
2.0132905227189e-206
0
9.2954290379712e-207
4.6505056834606e-207
5.2121560494978e-207
0
2.3481966578898e-207
1.1740983289449e-207
1.2711484152474e-207
0
5.5791603237625e-208
2.7895891006572e-208
2.4212104592259e-208
1.2106052296129e-208
1.2447922764827e-208
0
5.2592381706014e-209
2.6296190853007e-209
2.6090048823976e-209
0
1.0737330696248e-209
5.368665365524e-210
5.1477578890682e-210
0
2.4227969301127e-210
0
1.0241543338818e-210
5.1207716694092e-211
4.4957924196581e-211
0
1.3819568005703e-211
0
0
0
0
0
0
0
0
0
0
0
0
0
0
0
0
0
0
0
0
0
0
0
0
0
0
0
0
0
0
0
0
0
0
0
0
0
0
9.2977901545895e-154
4.6488950772948e-154
5.1034736889213e-150
2.5517368444606e-150
4.6395215355362e-150
4.6395215358087e-151
2.6871504430268e-140
1.422113809365e-140
4.7615017518054e-124
0
2.8727111260466e-124
1.3783108860041e-123
2.8727111260466e-124
0
3.5464719408059e-123
1.7641261956098e-123
5.1135037188753e-124
5.6115466573923e-123
2.8902792569742e-124
2.3483515315687e-124
2.6056342163805e-124
1.3418586947921e-125
2.2931603722695e-124
1.1593203946831e-124
3.6583177270119e-124
1.8291586232436e-124
2.8898586775836e-125
3.0803459602042e-124
5.6445939515367e-125
2.8767825609388e-125
5.4990542786566e-125
2.7495271388632e-125
1.6761671389386e-124
0
6.7924891388483e-123
0
4.4873652656977e-124
6.3437526122785e-123
1.3481860506455e-123
0
1.6772147351201e-122
0
1.6772147351201e-122
0
4.3381663199434e-122
0
4.3383766810908e-122
0
1.0404009270325e-123
4.2343365883875e-122
1.0525312648299e-123
0
1.0525312648299e-123
0
1.4150234052464e-123
0
1.1393035701891e-123
0
8.4523206444126e-124
0
5.8542188386452e-124
0
5.8542188386452e-124
0
2.2869957176521e-124
0
1.1068808831772e-124
0
7.304694331539e-125
0
4.4437786866452e-125
0
6.1060399242091e-126
3.8331746942243e-125
3.9048523160308e-126
0
1.2156558383773e-127
3.7832867321931e-126
1.2152919849454e-127
0
3.025035924953e-129
1.1850416256959e-127
3.0238327360481e-129
0
1.9172018692968e-129
0
7.0340248155104e-131
1.8468616211417e-129
6.4916830477825e-131
0
1.1803060086877e-131
5.3113770390947e-131
1.6080808482793e-132
1.0194979238598e-131
1.0112035527998e-132
0
3.1480999416917e-134
9.7972255338285e-133
3.1471133099414e-134
0
6.0093356872421e-136
3.087019953069e-134
4.2601968842214e-136
0
3.6293343881649e-136
0
5.6350814117607e-137
0
5.6331893663955e-137
0
1.0242162484356e-137
4.6089731179599e-137
3.6547337230869e-139
9.8766891120469e-138
1.0086246004788e-139
0
1.0082801508383e-139
0
3.9535349914718e-141
9.6874480092353e-140
3.615238658577e-141
0
4.8339260189356e-142
3.1318460566834e-141
2.9242256843862e-142
0
7.0295127064388e-144
2.8539305573219e-142
7.0263559830581e-144
0
3.9282972884067e-144
0
1.7106768433617e-144
0
9.9361685885505e-145
0
2.4160114756845e-146
9.694567440982e-145
2.4148147907267e-146
0
1.3731627655557e-146
0
1.810923306585e-147
1.1920704348972e-146
1.0632082524791e-147
0
3.0761936675592e-149
1.0324463158035e-147
2.0148031754961e-149
0
9.2614145685176e-150
0
3.8522041992561e-150
0
2.4506455640051e-150
0
8.6657658524919e-152
2.6888452914e-150
6.3024296814285e-152
0
0
0
0
0
0
0
0
0
0
0
0
0
0
0
0
0
0
0
0
0
0
0
0
0
0
0
0
0
0
0
0
0
0
0
0
-9.6449397824153e-92
-4.8224698912077e-92
-1.738328631275e-90
-8.6916431563749e-91
-2.0778011162492e-89
-1.0389005581246e-89
-1.748092818875e-88
-8.740464094375e-89
-1.0534402551232e-87
-5.2672012756158e-88
-5.0755586726252e-87
-2.5377793363126e-87
2.1823343003453e-73
9.0556790788267e-74
7.3949996245597e-75
2.0998779438196e-73
8.5058796661656e-75
0
1.5140568077547e-75
6.9478926097618e-75
2.6285280874056e-76
1.2487963536352e-75
1.3796964099412e-77
2.4905584464115e-76
9.1979838305023e-78
4.5989802389763e-78
1.6357867014012e-78
7.5102998669528e-78
2.9741578492193e-79
1.3383709164793e-78
5.4075598577605e-80
2.4334018634424e-79
4.9159635071906e-81
4.9159635070505e-80
4.6361155417979e-80
6.5349890121132e-80
1.7584454783712e-65
9.8753904555902e-66
3.684997166208e-64
1.9446922743316e-64
1.0902040533957e-64
5.1048172201205e-64
7.1627109758126e-65
1.2762043050301e-64
1.3474617734717e-65
4.3824382280869e-65
1.4759626271595e-66
6.5916395963432e-66
1.0151694425348e-66
1.661724355508e-66
3.0895397881972e-66
2.6350198342885e-66
1.0904325651552e-65
7.8546128102235e-66
6.4479524230017e-65
3.7822033277329e-65
4.0295402797061e-64
2.7428509926429e-64
1.9175688047623e-63
1.0181144427306e-63
5.5116199157747e-63
4.0083790348025e-63
2.2126231656805e-62
1.395226276387e-62
8.0204477636475e-62
5.271635354278e-62
2.2687035126401e-61
1.6613444861564e-61
8.5156354804518e-61
6.3757868014525e-61
2.0607119755124e-60
1.5716266105091e-60
5.5130404735777e-60
3.8882177332986e-60
1.181476018285e-59
9.4972281622013e-60
2.3959098933453e-59
1.9114453290366e-59
5.8868238152923e-59
4.3010455173225e-59
1.1502316739908e-58
9.2509868369987e-59
2.6480545834525e-58
1.9438422007212e-58
5.1057839399437e-58
4.2446004454241e-58
9.0324243660318e-58
7.5195190621492e-58
1.7235822697845e-57
1.39559139813e-57
2.3718652483588e-57
2.1483503345179e-57
3.019321108658e-57
2.8869391236339e-57
3.0595722683179e-57
3.2262218685033e-57
3.0027494114007e-57
3.193089725163e-57
3.1052584476788e-57
3.1050516804456e-57
2.89116638259e-57
3.1432211161168e-57
2.7174377265391e-57
2.8197790909751e-57
2.1475351139505e-57
2.5321254868557e-57
1.4634193116857e-57
1.872569891389e-57
8.3771995886007e-58
1.1495652888862e-57
3.0278363059914e-58
5.7426053668668e-58
7.3504519380158e-59
1.7536923497018e-58
1.0909576106526e-59
4.4942502097303e-59
1.7338823135709e-60
8.6886130775575e-60
4.5185049275564e-61
1.1496086233725e-60
8.509462596239e-62
3.5524171375909e-61
1.6346997078039e-62
6.738245963528e-62
3.133836575435e-63
1.2880514142329e-62
5.849669689826e-64
2.4805228051353e-63
9.6242598389573e-65
4.7601558215756e-64
2.5039284672295e-65
6.3492721065857e-65
5.9263788348172e-66
1.6204045428284e-65
9.8882486662333e-67
4.7066796385462e-66
2.413223459315e-67
6.5477231338362e-67
4.687491851012e-68
1.8741746481733e-67
7.6547191671778e-69
3.813407077769e-68
1.978407084535e-69
5.0556868374678e-69
4.6632171930798e-70
1.2817481623967e-69
8.0317358984862e-71
3.7129902452265e-70
1.4315255357947e-71
6.3930108129894e-71
3.6644881010186e-72
9.4814547973991e-72
9.3218965713291e-73
2.3316367446023e-72
2.3420514126927e-73
5.8422609390313e-73
5.8167366770461e-74
1.4604650552026e-73
1.4279218531309e-74
3.6100253286153e-74
3.3922569686089e-75
8.8760111486856e-75
9.617488794412e-76
2.0086952153381e-75
7.6826815705585e-76
0
0
0
0
0
0
0
0
0
0
0
0
0
0
0
0
0
0
5.7817017210586e-73
2.9041845795768e-73
5.3423802147827e-71
2.7472666405391e-71
1.7148622603624e-69
8.8944879912236e-70
4.0662130795507e-68
2.1327935366453e-68
7.1192636459384e-67
3.8353191598108e-67
9.6401356318928e-66
5.1676660091377e-66
2.0147874327984e-64
1.0708626525281e-64
2.6989072545543e-63
1.4752314049812e-63
3.1037335596932e-62
1.706467470726e-62
2.6925514595358e-61
1.5290143006932e-61
2.1368275023485e-60
1.1714826260574e-60
3.3468275898609e-59
1.9425142189844e-59
1.379329236485e-58
8.4757468084469e-59
7.7735849261064e-58
4.4546832565041e-58
4.3907227190349e-57
3.259466050177e-57
5.2674051021876e-57
5.4674914390066e-57
1.8527081746005e-57
3.0587364693743e-57
3.5457967234963e-58
1.4981285040477e-57
6.4550547637157e-59
2.9002912471247e-58
1.1736438823776e-59
5.2814108813381e-59
2.7123150033742e-60
9.0241238204022e-60
2.4172938116607e-55
0
4.4044556089973e-56
1.976848250761e-55
8.1003747809174e-57
3.5944181309056e-56
9.3682814911904e-55
0
5.7964708625958e-55
3.5718106285946e-55
3.1648467803162e-50
1.1546343547598e-50
4.4791343773934e-49
4.0540495122678e-49
1.4095996594967e-49
4.4474804775934e-49
1.3760263966461e-49
5.4738221262688e-50
1.3319046671486e-50
1.2428359299312e-49
3.2508939131875e-51
1.0068152758299e-50
2.5607105914949e-52
0
2.554963655288e-52
5.1596465505715e-55
2.3226954154804e-53
2.3226941137402e-52
1.1241365517387e-52
0
2.2877885046889e-53
2.3539141841188e-52
1.0188499508896e-53
2.2924125407073e-53
1.852456154141e-54
8.3360433649227e-54
2.7610559336155e-53
0
1.7468238138625e-50
0
1.7428814802898e-50
2.9957825312741e-53
3.1689088788862e-51
7.1298427296516e-51
5.8793735289636e-52
2.5809715287005e-51
8.3789687795632e-49
0
8.3795945676058e-49
0
1.5236272319275e-49
6.8559673362082e-49
1.7984309730229e-49
0
3.2699035548274e-50
1.471440620076e-49
3.8076917856697e-50
0
2.470005897223e-51
3.5606913106509e-50
2.4700077079192e-51
0
2.8783331458836e-51
0
5.2333564029556e-52
2.355002634159e-51
5.9617947197301e-52
0
1.0839951735864e-52
4.877866884389e-52
1.9712084995526e-53
8.8693990406701e-53
2.2292552018179e-53
0
4.0562001949743e-54
1.82426258542e-53
4.5312249634115e-54
0
6.8647419308373e-55
3.8490722240501e-54
6.896256499067e-55
0
7.1869040369239e-55
0
7.1927581047971e-55
0
7.0441674797781e-55
0
1.2055282769487e-55
5.8390000341076e-55
2.1929583921493e-56
9.8629972520341e-56
1.2597609741571e-56
0
1.2597215415359e-56
0
4.1662152087617e-58
1.2180648098779e-56
4.166085572317e-58
0
4.0387423095755e-59
3.7622312572792e-58
4.0387805704264e-59
0
2.6669505634935e-59
0
2.1110637378148e-59
0
2.1110641065916e-59
0
6.6244340896915e-60
0
6.5893777725272e-60
0
1.3468381839113e-61
6.454693984449e-60
1.1236322403249e-61
0
9.1379453384701e-62
0
4.5726482408155e-63
8.6806805434399e-62
4.5466001160548e-63
0
2.5543929411183e-63
0
1.62914397024e-63
0
1.0854916445644e-63
0
2.6192714664041e-64
5.8340768229948e-64
1.9861736219294e-64
0
4.5680174283309e-65
9.7234613716582e-65
1.9552832715324e-65
1.8231490071859e-65
1.2154326714573e-65
0
0
0
0
0
0
0
0
0
0
0
0
0
0
1.3071274574134e-63
6.5419707056314e-64
1.6958483755679e-61
8.5408602195198e-62
1.0809771070726e-59
5.482925342929e-60
4.5170776344576e-58
2.3086156383256e-58
1.3946645665678e-56
7.1845096857212e-57
3.4008368490109e-55
1.7662211358128e-55
6.8242328445678e-54
3.5740504076692e-54
1.1563840116e-52
6.1097480752975e-53
1.6828330697674e-51
8.9738414311479e-52
2.131027694259e-50
1.1473521640154e-50
2.3810741750929e-49
1.2942890105448e-49
2.388108804344e-48
1.3096817188007e-48
2.1944558619155e-47
1.2126232094861e-47
1.8864320168629e-46
1.0487245297069e-46
1.5421682592773e-45
8.6151554234554e-46
1.2089285195768e-44
6.7838183352928e-45
9.0872724556828e-44
5.1243087433029e-44
6.5147713058362e-43
3.6953122929409e-43
4.4234799437785e-42
2.526851953142e-42
2.8273736207945e-41
1.6284174045823e-41
1.694020181297e-40
9.847190839655e-41
9.4913224120575e-40
5.5732295171497e-40
4.9679424900478e-39
2.9488806110876e-39
2.4291189367111e-38
1.4584682117453e-38
1.1101314036545e-37
6.7456622483596e-38
4.7459335249771e-37
2.9200298815677e-37
1.8998673443152e-36
1.1841463450195e-36
7.1290644127696e-36
4.5032457261147e-36
2.5101452971202e-35
1.6076623857884e-35
8.3014905402392e-35
5.3931970579226e-35
2.5811826271139e-34
1.7017463057203e-34
7.5523759940914e-34
5.0551881438743e-34
2.0812998497043e-33
1.415001205539e-33
5.4069222786383e-33
3.7353281647328e-33
1.3252877870103e-32
9.3074001383984e-33
3.0676337012593e-32
2.1909734449164e-32
6.7116695112057e-32
4.8769331562245e-32
1.3893120685102e-31
1.0274443539069e-31
2.7233829045481e-31
2.050541387245e-31
5.059423635172e-31
3.8800460244819e-31
8.9124471943008e-31
6.9651357530632e-31
1.4886194338203e-30
1.1863899038708e-30
2.3554997520226e-30
1.9165069818055e-30
3.5232219731418e-30
2.9317192571627e-30
4.9556811869842e-30
4.2323072083001e-30
6.4682160129835e-30
5.7177787286593e-30
7.6149970429776e-30
7.0837575497968e-30
7.9897513427704e-30
7.8380484680097e-30
8.0080205972757e-30
7.9608985866471e-30
7.8559864032155e-30
7.8764137336327e-30
7.3837335725619e-30
7.5591745198525e-30
6.4651004199879e-30
6.8576402149694e-30
5.1595151782266e-30
5.7483776601596e-30
3.6626836315155e-30
4.3524105164324e-30
2.2531022544258e-30
2.9072636088346e-30
1.1687517765858e-30
1.6708064282163e-30
5.0146600332114e-31
8.0808121604449e-31
1.7898227226462e-31
3.2629745520405e-31
5.5537648067361e-32
1.1224745669348e-31
1.6048099720969e-32
3.4574504082353e-32
4.5699682406905e-33
1.0103393111334e-32
1.315023239755e-33
2.9165816167053e-33
3.8343804625784e-34
8.4620510038261e-34
1.1283367971941e-34
2.47560903242e-34
3.3408632736242e-35
7.2938576190997e-35
9.9456423745991e-36
2.1617954851967e-35
2.9775117967147e-36
6.4440871574115e-36
8.9629488084328e-37
1.9319191248496e-36
2.7098148125916e-37
5.8216221657258e-37
8.2121482553862e-38
1.7607979338833e-37
2.4886202914541e-38
5.3343983150849e-38
7.5239014074211e-39
1.6150031574e-38
2.2652071145428e-39
4.8759713687435e-39
6.7827888604348e-40
1.46567960416e-39
2.0185022401221e-40
4.3815641885506e-40
5.9678332778291e-41
1.3018187541944e-40
1.7527100568476e-41
3.842897226619e-41
5.1132619147318e-42
1.1269183060938e-41
1.4818268234154e-42
3.2827528998179e-42
4.2662461761639e-43
9.4997743473081e-43
1.2203882792763e-43
2.7312230443785e-43
3.4691360090143e-44
7.8023622672015e-44
9.8014778113669e-45
2.2150742079005e-44
2.7528881247359e-45
6.2505625281496e-45
7.6876439688127e-46
1.753467044537e-45
2.1349438423071e-46
4.8910671787186e-46
5.897172042814e-47
1.3568072876553e-46
1.6205700536201e-47
3.7437502162679e-47
4.4291963926328e-48
1.027885607032e-47
1.2088155678161e-48
2.8035402608225e-48
3.1935663178843e-49
7.7099069116948e-49
1.0381105308639e-49
1.8880891561122e-49
8.8177102183823e-50
0
0
0
0
0
0
0
0
0
0
0
0
1.1718947562912e-63
5.8500729618007e-64
2.2758683076375e-61
1.1359519302621e-61
1.9628399855639e-59
9.8280322710433e-60
1.0511352943161e-57
5.288956846752e-58
4.011103999758e-56
2.0304140065846e-56
1.1771350010895e-54
5.9989078759529e-55
2.7896787503737e-53
1.4320331881301e-53
5.5145747783774e-52
2.8527790700207e-52
9.2912203107372e-51
4.8461097822657e-51
1.3556103438963e-49
7.1321703792573e-50
1.7348634611939e-48
9.2110643645465e-49
1.9675875459617e-47
1.0546382190561e-47
1.9955687425626e-46
1.079988884155e-46
1.8309141072308e-45
9.9996376175334e-46
1.544979749388e-44
8.5040265771542e-45
1.2223146324278e-43
6.7687752557599e-44
9.2113592683836e-43
5.1249152083144e-43
6.6651915883614e-42
3.7241837756773e-42
4.6330223912137e-41
2.6009839843574e-41
3.081707140959e-40
1.7399097914381e-40
1.9508454652186e-39
1.1089177720581e-39
1.1690034786533e-38
6.6976641055553e-39
6.6009499128182e-38
3.8161109610504e-38
3.5006231150675e-37
2.0441515205194e-37
1.7397751208421e-36
1.0271173917744e-36
8.0935365355161e-36
4.834892687935e-36
3.5228144913192e-35
2.1309871533271e-35
1.4347488388471e-34
8.7941791776865e-35
5.4697404730767e-34
3.3991642320129e-34
1.9530850193726e-33
1.2312547278382e-33
6.5366637009736e-33
4.1823557254856e-33
2.0522655519652e-32
1.3333238287506e-32
6.0500563390863e-32
3.9928132510791e-32
1.6764501216941e-31
1.1243094764659e-31
4.371620128904e-31
2.9802067090343e-31
1.0742072236399e-30
7.4457529737459e-31
2.4908256139227e-30
1.7557752510572e-30
5.4579605790294e-30
3.9133108376547e-30
1.13168090192e-29
8.2551858592989e-30
2.2227545764091e-29
1.6501626980041e-29
4.1385489798891e-29
3.1284082266864e-29
7.306853615082e-29
5.6277201191629e-29
1.2231033902718e-28
9.606692037377e-29
1.9394521076836e-28
1.5552970253262e-28
2.9074499380612e-28
2.3847025089549e-28
4.1018063937117e-28
3.4521496704542e-28
5.382891174894e-28
4.6837545642001e-28
6.4015059836269e-28
5.8493010652421e-28
6.7808344720871e-28
6.5447017340811e-28
6.8045667678425e-28
6.6833222722504e-28
6.7050966119378e-28
6.6293924066997e-28
6.3472607626325e-28
6.3978730075916e-28
5.6186432086007e-28
5.8568289586375e-28
4.5525733153246e-28
4.9731616633633e-28
3.2978824568438e-28
3.8311335667209e-28
2.0836214166248e-28
2.6178734316002e-28
1.118995201456e-28
1.5495187872856e-28
5.0103871945731e-29
7.7768281694451e-29
1.8737797011292e-29
3.2781532473296e-29
6.0692436450354e-30
1.1782211146078e-29
1.8125081114407e-30
3.7704000226347e-30
5.2843527300582e-31
1.1348239123598e-30
1.5495055382665e-31
3.3514633842075e-31
4.6009522962959e-32
9.9171700580456e-32
1.3804862036242e-32
2.9580183902792e-32
4.174973550694e-33
8.8948875091766e-33
1.2715549695685e-33
2.6946948036665e-33
3.8995488854869e-34
8.2222175096526e-34
1.2033916941353e-34
2.5259647728458e-34
3.7304285134454e-35
7.8045645243936e-35
1.1585424689835e-35
2.420248278164e-35
3.5938154673019e-36
7.5123585257802e-36
1.1104558954587e-36
2.3273467290636e-36
3.4108715552941e-37
7.1787953325173e-37
1.0402011965405e-37
2.20082920564e-37
3.1478699274482e-38
6.6990905122711e-38
9.4516085026988e-39
2.0236412741007e-38
2.8158815730706e-39
6.0657378361223e-39
8.3254092110894e-40
1.8042099818377e-39
2.4431708646719e-40
5.3259741758543e-40
7.1177387424876e-41
1.5606001744153e-40
2.059026435257e-41
4.5399241427735e-41
5.9157856849786e-42
1.3114835661739e-41
1.6884813191881e-42
3.7629945103672e-42
4.788685274172e-43
1.072661359945e-42
1.3498115030386e-43
3.0384462430191e-43
3.7823725427595e-44
8.5545932620883e-44
1.0538522968164e-44
2.3944373232066e-44
2.9203486992627e-45
6.6641270595676e-45
8.0464328683522e-46
1.8450490842396e-45
2.2134039613448e-46
5.0730380443901e-46
5.8907672906659e-47
1.4063512193156e-46
1.9321604822046e-47
3.4650914738207e-47
1.6381894205066e-47
0
0
0
0
0
0
0
0
0
0
5.3801442145743e-64
2.6748324858244e-64
1.403186569049e-61
6.9580005881895e-62
1.5726133327285e-59
7.7978017312487e-60
1.0540327392017e-57
5.2375055758553e-58
4.9006021209858e-56
2.4440587603457e-56
1.7164322149662e-54
8.6016544182853e-55
4.7736211247282e-53
2.4058642550495e-53
1.0937172921267e-51
5.5474262499293e-52
2.1179623788806e-50
1.0817568752152e-50
3.5300929892126e-49
1.8166360740195e-49
5.1366070046574e-48
2.6647754147007e-48
6.5986008897225e-47
3.4527508314086e-47
7.5469860946482e-46
3.9849774515627e-46
7.7461698968223e-45
4.1290481615179e-45
7.1869117833852e-44
3.8682800410131e-44
6.0739600335139e-43
3.3001087481719e-43
4.7342246736623e-42
2.5929145014128e-42
3.4717949586678e-41
1.9122992498601e-41
2.4447040296365e-40
1.3515264597007e-40
1.6674984731885e-39
9.2507472451402e-40
1.0965047038677e-38
6.1142145444904e-39
6.8855396866624e-38
3.8676799235312e-38
4.1005563255277e-37
2.324353897227e-37
2.3081822940836e-36
1.3217604633798e-36
1.2260941438471e-35
7.0979604617596e-36
6.1381018172847e-35
3.5943661075834e-35
2.8916852803316e-34
1.713865487038e-34
1.2798935164773e-33
7.6827941413506e-34
5.3141376469598e-33
3.2329560925111e-33
2.0670322562726e-32
1.2754123124318e-32
7.5240407809032e-32
4.7120712495669e-32
2.5609416293621e-31
1.6290679309272e-31
8.1465298413037e-31
5.2675118722522e-31
2.4214975071586e-30
1.5926015394676e-30
6.7267543170664e-30
4.502788517034e-30
1.7474740308953e-29
1.1910861181708e-29
4.2505006206632e-29
2.9507974710001e-29
9.7001634672643e-29
6.8583980315665e-29
2.0831479903939e-28
1.499403194131e-28
4.2262597279796e-28
3.0941902096294e-28
8.1364658432998e-28
6.0525333754244e-28
1.492926771957e-27
1.1271426013445e-27
2.6188830842005e-27
2.0055203886852e-27
4.396024779916e-27
3.4156513352592e-27
7.0484388803778e-27
5.5650050660724e-27
1.0748040039341e-26
8.6471919039859e-27
1.5479801935883e-26
1.274579314943e-26
2.0804414841635e-26
1.7666788611583e-26
2.5456182581207e-26
2.2636271622974e-26
2.7638558022778e-26
2.6050271767955e-26
2.785095422011e-26
2.7008086069569e-26
2.7622384945934e-26
2.6886210371994e-26
2.6414251799869e-26
2.615608712093e-26
2.3712228537956e-26
2.4235063154061e-26
1.956065966384e-26
2.0907469274992e-26
1.4484836763448e-26
1.6424702871159e-26
9.404480149955e-27
1.1495702367996e-26
5.2244984199566e-27
7.0081357929919e-27
2.4363498865145e-27
3.6455402247131e-27
9.5263472368546e-28
1.6011215225389e-27
3.2180217944212e-28
6.0033200692174e-28
9.9394128535756e-29
1.9953619756474e-28
2.9709661359752e-29
6.1908524973807e-29
8.8874810197192e-30
1.8725672699228e-29
2.6893243355749e-30
5.6563625874718e-30
8.2317228683174e-31
1.721254616129e-30
2.5441576287014e-31
5.2856235743039e-31
7.9328679971299e-32
1.6377697848809e-31
2.4942800465984e-32
5.1192538013952e-32
7.8988869322164e-33
1.613108623609e-32
2.5131925737349e-33
5.1155944462327e-33
8.0061972079858e-34
1.6281407353224e-33
2.5442124715478e-34
5.1825104050597e-34
8.0392096314952e-35
1.6441333451558e-34
2.52024539661e-35
5.1839223680272e-35
7.8296167894692e-36
1.6214263481104e-35
2.4096954783918e-36
5.0263044319591e-36
7.3479692085676e-37
1.5438382598378e-36
2.2207185492656e-37
4.6990284508279e-37
6.6540843626273e-38
1.4177028298925e-37
1.9773755264707e-38
4.2409765570853e-38
5.829431175255e-39
1.2582925170824e-38
1.7054079162792e-39
3.7039247327655e-39
4.9525078930209e-40
1.0820249601172e-39
1.4280577356664e-40
3.1378824940779e-40
4.0899251523676e-41
9.0362447165973e-41
1.1637339258472e-41
2.5847271041073e-41
3.2905965863526e-42
7.34572241113e-42
9.2487275053097e-43
2.0747262526683e-42
2.5846595606725e-43
5.8248705585e-43
7.1799304225798e-44
1.6263496862727e-43
1.9908477613384e-44
4.5082637117612e-44
5.3380021449209e-45
1.2599693638923e-44
1.7669411847814e-45
3.1234852039765e-45
1.4952494009702e-45
0
0
0
0
0
0
0
0
0
0
3.5542845279163e-62
1.7413734575349e-62
6.6510018124198e-60
3.2599135628518e-60
5.9968025267261e-58
2.9432941198049e-58
3.4734850509178e-56
1.7090015395895e-56
1.4593657179344e-54
7.2048450238451e-55
4.7591528334467e-53
2.3596339122416e-53
1.2583098510495e-51
6.2700861713573e-52
2.7822901223824e-50
1.3942414695843e-50
5.2579964173299e-49
2.651366595948e-49
8.6300391753964e-48
4.3815592331695e-48
1.2461167350605e-46
6.3737447653417e-47
1.5979088943576e-45
8.2386498267166e-46
1.8337271552178e-44
9.5355273920029e-45
1.8964165697795e-43
9.9508808131468e-44
1.7779284409077e-42
9.4182799021226e-43
1.5170702235829e-41
8.1162187843319e-42
1.1859372850083e-40
6.4059653608795e-41
8.5898761835471e-40
4.6772986147973e-40
5.8777568789691e-39
3.2159992103156e-39
3.9042157818796e-38
2.139185184254e-38
2.5739021950821e-37
1.4109121028371e-37
1.6900836130754e-36
9.2924327313347e-37
1.0912187775142e-35
6.0431905395111e-36
6.8079156121457e-35
3.8105247400841e-35
4.043096470412e-34
2.2918229228224e-34
2.2608723264516e-33
1.2993565841682e-33
1.1816747447418e-32
6.8905413787205e-33
5.7453917263343e-32
3.4012674946024e-32
2.5910796754464e-31
1.5582016657581e-31
1.082086075522e-30
6.6144712469271e-31
4.1809940096729e-30
2.599537689645e-30
1.4939088596121e-29
9.4548136898618e-30
4.9341120509259e-29
3.1815019262517e-29
1.5054484856684e-28
9.8999568679949e-29
4.2391907731373e-28
2.8465867961825e-28
1.1002031548911e-27
7.5544930144292e-28
2.627291127219e-27
1.8476507344093e-27
5.7637499801883e-27
4.1579737056105e-27
1.1610022425301e-26
8.6016683232589e-27
2.1516690278472e-26
1.637303216904e-26
3.6923832448705e-26
2.8804321507835e-26
5.9365460005322e-26
4.7275470914693e-26
9.0863935289765e-26
7.3416623373803e-26
1.3459657186582e-25
1.0964798078527e-25
1.9529865025405e-25
1.5970823360795e-25
2.7857208887614e-25
2.2852141934421e-25
3.8803944952209e-25
3.2058275119288e-25
5.1903750391934e-25
4.359050025176e-25
6.4717663571551e-25
5.6207038732013e-25
7.2374767075707e-25
6.6370177680901e-25
7.3691182779194e-25
7.0325752157265e-25
7.3490559216542e-25
7.042884071469e-25
7.0912300032257e-25
6.8976321049399e-25
6.475798516564e-25
6.4788911167342e-25
5.4453521708292e-25
5.6867041986533e-25
4.1272506108945e-25
4.5622828743263e-25
2.7548563721724e-25
3.2735985312321e-25
1.5819378408163e-25
2.0554059591495e-25
7.6695113329434e-26
1.1070027436403e-25
3.1290375937873e-26
5.056972828174e-26
1.1011706583553e-26
1.9749869127273e-26
3.5192028166922e-27
6.8150339783496e-27
1.0798656902644e-27
2.1810640426102e-27
3.2998711971744e-28
6.7643764081762e-28
1.0186170566788e-28
2.0881056560387e-28
3.1832724709666e-29
6.4887538645246e-29
1.0062416764699e-29
2.0365361876927e-29
3.2150099410129e-30
6.4598054773855e-30
1.0374830288855e-30
2.0705133376748e-30
3.3753340180413e-31
6.6993289279294e-31
1.1035015620897e-31
2.1831026481602e-31
3.6096911541823e-32
7.1390043647735e-32
1.1761444166295e-32
2.3326481173945e-32
3.8030454889279e-33
7.5842839838991e-33
1.2174184525162e-33
2.4459078481754e-33
3.8541277192925e-34
7.8086815788601e-34
1.2065923748561e-34
2.4659383799199e-34
3.7371383031162e-35
7.7029176697091e-35
1.1458359336854e-35
2.3810767336366e-35
3.4797949843843e-36
7.2872674024239e-36
1.0472241470145e-36
2.2092701652282e-36
3.1243561299834e-37
6.6377698794892e-37
9.2444910743058e-38
1.9772561643912e-37
2.7137335230072e-38
5.841686981547e-38
7.9061950888417e-39
1.7124116041045e-38
2.286815705026e-39
4.9822498326221e-39
6.5689597100111e-40
1.4392467724832e-39
1.8745357322079e-40
4.1292716162961e-40
5.3154488669657e-41
1.1769800411341e-40
1.498218210956e-41
3.3337112366525e-41
4.1965033716825e-42
9.3878637346092e-42
1.1730435706669e-42
2.6238861507215e-42
3.1690325886196e-43
7.3938853034487e-43
1.0588201509412e-43
1.8442748843416e-43
8.9423645956579e-44
0
0
0
0
0
0
0
0
1.0061619992124e-72
3.935159221692e-73
1.1365706931141e-60
5.4815020537957e-61
1.8583036406362e-58
8.9828575431703e-59
1.5003696137659e-56
7.2719867224752e-57
7.956625301788e-55
3.8686647402279e-55
3.1161414076778e-53
1.5207470764923e-53
9.6120522642922e-52
4.7107843940269e-52
2.4326509467259e-50
1.1978747802107e-50
5.1991849165089e-49
2.5735453740656e-49
9.5755048936711e-48
4.7669546184868e-48
1.5429209707766e-46
7.7290418694345e-47
2.2016835493373e-45
1.110405136082e-45
2.8053770803574e-44
1.4253073133461e-44
3.2159313445681e-43
1.6468851016093e-43
3.3365647674963e-42
1.7232664663418e-42
3.147025951377e-41
1.6400499837302e-41
2.7120550851785e-40
1.4269371849344e-40
2.1419538290665e-39
1.1385542838173e-39
1.5528129338236e-38
8.3378342192301e-39
1.0448242687838e-37
5.651291694317e-38
6.7529438567888e-37
3.6567754277695e-37
4.4120080710538e-36
2.3781138537439e-36
3.0278473136421e-35
1.624279695325e-35
2.1790087601801e-34
1.1698843757037e-34
1.5857807323162e-33
8.5777590536947e-34
1.1186640231722e-32
6.1243555742507e-33
7.4191753759768e-32
4.1210433687972e-32
4.5452611018404e-31
2.5648539166728e-31
2.5488700606775e-30
1.4624556096842e-30
1.3026362816773e-29
7.6056587510852e-30
6.0558621046295e-29
3.6010835859104e-29
2.5598408649097e-28
1.551735020251e-28
9.8388848784324e-28
6.0861396084786e-28
3.4401045614277e-27
2.1739193287931e-27
1.0945304315938e-26
7.0752672797447e-27
3.1677227049445e-26
2.0978825752809e-26
8.3328156583505e-26
5.6636770614877e-26
1.9908338806142e-25
1.3913910795227e-25
4.3135187220627e-25
3.1075628371389e-25
8.4420527086835e-25
6.291722562522e-25
1.4814194514121e-24
1.1478242259588e-24
2.3128737941466e-24
1.8719355613928e-24
3.2168996585002e-24
2.7198039222066e-24
4.0710880947745e-24
3.5624640276274e-24
4.8657756012374e-24
4.3364600919856e-24
5.7009490133955e-24
5.0944437214113e-24
6.7303022224702e-24
5.9616884039702e-24
8.1142783920026e-24
7.085766635663e-24
9.9377199704398e-24
8.5843817832696e-24
1.2024537307463e-23
1.0433593122212e-23
1.3660798349673e-23
1.2245465651335e-23
1.4133485537325e-23
1.3233173302716e-23
1.4148650190913e-23
1.335433634944e-23
1.3791779077491e-23