/*--------------------------------*- C++ -*----------------------------------*\
  =========                 |
  \\      /  F ield         | OpenFOAM: The Open Source CFD Toolbox
   \\    /   O peration     | Website:  https://openfoam.org
    \\  /    A nd           | Version:  7
     \\/     M anipulation  |
\*---------------------------------------------------------------------------*/
FoamFile
{
    version     2.0;
    format      ascii;
    class       volScalarField;
    location    "4";
    object      alpha.water;
}
// * * * * * * * * * * * * * * * * * * * * * * * * * * * * * * * * * * * * * //

dimensions      [0 0 0 0 0 0 0];

internalField   nonuniform List<scalar> 
6000
(
0
0
0
0
0
0
0
0
0
0
0
0
0
0
0
0
0
0
0
0
0
0
0
0
0
0
0
0
0
0
0
0
0
0
0
0
0
0
0
0
0
0
0
0
0
0
0
0
0
0
0
0
0
0
0
0
0
0
0
0
0
0
0
0
0
0
0
0
0
0
0
0
0
0
0
0
0
0
0
0
0
0
0
0
0
0
0
0
0
0
0
0
0
0
0
0
0
0
0
0
0
0
0
0
0
0
0
0
0
0
0
0
0
0
0
0
0
0
0
0
0
0
0
0
0
0
0
0
0
0
0
0
0
0
0
0
0
0
0
0
0
0
0
0
0
0
0
0
0
0
0
0
0
0
0
0
0
0
0
0
0
0
0
0
0
0
0
0
0
0
0
0
0
0
0
0
0
0
0
0
0
0
0
0
0
0
0
0
0
0
0
0
0
0
0
0
0
0
0
0
0
0
0
0
0
0
0
0
0
0
0
0
0
0
0
0
0
0
0
0
0
0
0
0
0
0
0
0
0
0
0
0
0
0
0
0
0
0
0
0
0
0
0
0
0
0
0
0
0
0
0
0
0
0
0
0
0
0
0
0
0
0
0
0
0
0
0
0
0
0
0
0
0
0
0
0
0
0
0
0
0
0
0
0
0
0
0
0
0
0
0
0
0
0
0
0
0
0
0
0
0
0
0
0
0
0
0
0
0
0
0
0
0
0
0
0
0
0
0
0
0
0
0
0
0
0
0
0
0
0
0
0
0
0
0
0
0
0
0
0
0
0
0
0
0
0
0
0
0
0
0
0
0
0
0
0
0
0
0
0
0
0
0
0
0
0
0
0
0
0
0
0
0
0
0
0
0
0
0
0
0
0
0
0
0
0
0
0
0
0
0
0
0
0
0
0
0
0
0
0
0
0
0
0
0
0
0
0
0
2.118666170918e-91
2.72955199484e-89
1.744397039642e-87
7.4180636043041e-86
2.3561481181194e-84
5.9700941453308e-83
1.2566795608458e-81
2.2599842575306e-80
3.5453432614875e-79
4.9279316986907e-78
6.1452210254182e-77
6.9441191656442e-76
7.1698612964444e-75
6.8112495501671e-74
5.9887615351852e-73
4.898553602647e-72
3.7441123448348e-71
2.6845788907698e-70
1.8119172420398e-69
1.1547462803739e-68
6.9680654553603e-68
3.9911561185023e-67
2.1748437990215e-66
1.1297783989586e-65
5.6054863162709e-65
2.6609404078673e-64
1.2104618175884e-63
5.284412615563e-63
2.216992033191e-62
8.949586478914e-62
3.4803612706269e-61
1.3052885143081e-60
4.726022521729e-60
1.6535268985119e-59
5.5956050088373e-59
1.8330467889751e-58
5.8175499300954e-58
1.7900978867205e-57
5.3443576190939e-57
1.5491441195171e-56
4.3626059402577e-56
1.1943292318404e-55
3.1803797855766e-55
8.242359785606e-55
2.0800384596731e-54
5.1139578186631e-54
1.2255126374839e-53
2.8638683663908e-53
6.529111665831e-53
1.4527924814668e-52
3.1562896159004e-52
6.6979504149816e-52
1.3888645724114e-51
2.8150464012543e-51
5.5791500032079e-51
1.0815593142877e-50
2.0514933258031e-50
3.8085510075627e-50
6.922246507559e-50
1.2321264441266e-49
2.1483402612686e-49
3.670328061073e-49
6.1457018133013e-49
1.0088102390816e-48
1.62376159361e-48
2.5633600959697e-48
3.9697943468091e-48
6.0324098560463e-48
8.9963926993933e-48
1.3170071405699e-47
1.8929319147534e-47
2.6717212401903e-47
3.7037020551543e-47
5.043671615238e-47
6.7483605600563e-47
8.8728530835129e-47
1.1466004104096e-46
1.4565089540736e-46
1.8190009761435e-46
2.2337567657344e-46
2.6976437269308e-46
3.2043505926883e-46
3.7442183552806e-46
4.3043297805592e-46
4.8688811293606e-46
5.419837723115e-46
5.9378570235113e-46
6.403404414067e-46
6.797980376577e-46
7.1053477020554e-46
9.0208665594491e-45
0
0
0
0
0
0
0
-1.9647011668761e-81
-2.4258234658316e-79
-1.49223401596e-77
-6.097478567444e-76
-1.8617959543602e-74
-4.5309551028667e-73
-9.1543812402912e-72
-1.5792802304821e-70
-2.3746958535963e-69
-3.1614416863454e-68
-3.7727103152202e-67
-4.076076482592e-66
-4.0199178398856e-65
-3.6438619431064e-64
-3.0535640094399e-63
-2.3775082662874e-62
-1.7273633949252e-61
-1.1755129140683e-60
-7.5177205168165e-60
-4.5312806642891e-59
-2.5807379442256e-58
-1.3919907305107e-57
-7.1246319387335e-57
-3.4664033058846e-56
-1.6056190758283e-55
-7.0894319893511e-55
-2.9870791852936e-54
-1.2020066530397e-53
-4.62208452407e-53
-1.698852917513e-52
-5.9678472143578e-52
-2.0025127389849e-51
-6.4105976780817e-51
-1.9536509332138e-50
-5.6473070784004e-50
-1.5389674191621e-49
-3.9117995436954e-49
-9.0884227656766e-49
-1.8458218022702e-48
-2.8716441023116e-48
-1.2051801471272e-48
1.5276402003884e-47
8.9456963959156e-47
3.5650594982588e-46
1.2099654685468e-45
3.7272563266127e-45
1.0710674513059e-44
2.9129651896804e-44
7.5631795289228e-44
1.8853047599864e-43
4.5298225321379e-43
1.0521111493113e-42
2.3674719391111e-42
5.1702461143196e-42
1.0973842934835e-41
2.2664261944515e-41
4.559278672815e-41
8.9412689361582e-41
1.7107268851836e-40
3.1954608651999e-40
5.8306938293728e-40
1.0398690987724e-39
1.8135349045573e-39
3.0942945227746e-39
5.1673833066549e-39
8.4493837976874e-39
1.3532737566391e-38
2.123751815856e-38
3.2667958983938e-38
4.9269190383809e-38
7.2877303241536e-38
1.0575350221041e-37
1.5059115314249e-37
2.1048348307037e-37
2.8884011016747e-37
3.892429538426e-37
5.1523670098743e-37
6.7005586870014e-37
8.5629918056778e-37
1.0755715877464e-36
1.3281235404714e-36
1.6125245140887e-36
1.9254117512433e-36
2.2613543902858e-36
2.6128668477085e-36
2.9705935272209e-36
3.3236705540158e-36
3.6602510506711e-36
3.9681609011614e-36
4.2356347100285e-36
4.4520693345953e-36
4.6087269477402e-36
5.5458380170139e-35
0
0
0
0
0
0
-8.715570317652e-80
-1.1055628578648e-77
-6.9862428717633e-76
-2.9323408180859e-74
-9.1970144736444e-73
-2.2991521556442e-71
-4.772030455573e-70
-8.458331268113e-69
-1.3069630292745e-67
-1.7884391456176e-66
-2.1943576044369e-65
-2.4384973143502e-64
-2.474666874853e-63
-2.3094597996014e-62
-1.9937613040737e-61
-1.6003620082924e-60
-1.1996957934282e-59
-8.4318311330306e-59
-5.5752623639018e-58
-3.4788237260654e-57
-2.0540717401584e-56
-1.150505394841e-55
-6.1266513487011e-55
-3.1081497478316e-54
-1.5049778397848e-53
-6.9669778708789e-53
-3.0883112734154e-52
-1.3127503691851e-51
-5.357983636571e-51
-2.1023682969129e-50
-7.9395304014867e-50
-2.8887749763102e-49
-1.0136466596659e-48
-3.4332379282371e-48
-1.1233822326548e-47
-3.5537975976392e-47
-1.0877000218636e-46
-3.2230163120172e-46
-9.2515604655667e-46
-2.5739842286111e-45
-6.9446708879253e-45
-1.8177988410845e-44
-4.6180443148789e-44
-1.139025161229e-43
-2.7282836033677e-43
-6.3476824221636e-43
-1.4347146081141e-42
-3.1503369829732e-42
-6.7198583691976e-42
-1.392159193713e-41
-2.8001825766508e-41
-5.4651648076546e-41
-1.0341106464763e-40
-1.894671987321e-40
-3.3551733386969e-40
-5.7273147545191e-40
-9.3863912251538e-40
-1.4676591598854e-39
-2.1665903531474e-39
-2.9622510315869e-39
-3.6012359310752e-39
-3.4723164629704e-39
-1.3106907603585e-39
5.2688054700421e-39
2.0473138327281e-38
5.1336735754372e-38
1.0909752336083e-37
2.1099123267452e-37
3.8247327726151e-37
6.5981433954371e-37
1.0929269171233e-36
1.7481691456254e-36
2.7107494329171e-36
4.0862382264261e-36
6.0006055764786e-36
8.5981730999907e-36
1.2036924156213e-35
1.6480777813888e-35
2.2088708825155e-35
2.9000976800209e-35
3.7323180278227e-35
4.7109320701771e-35
5.8345475988412e-35
7.0935965192026e-35
8.4693963002582e-35
9.9338345208507e-35
1.1449809772507e-34
1.2972492892624e-34
1.4451385797537e-34
1.5833061717031e-34
1.706438319628e-34
1.8095925736847e-34
1.8885296220946e-34
2.3565749381456e-33
0
0
0
0
0
2.8934116202234e-81
-5.1021818651342e-78
-6.6449361345156e-76
-4.211282502391e-74
-1.7629847842217e-72
-5.5037200310336e-71
-1.3682367074803e-69
-2.8229296142991e-68
-4.9728832810433e-67
-7.6364989182801e-66
-1.0385497920088e-64
-1.2665404334591e-63
-1.3990822055259e-62
-1.4115881636134e-61
-1.3099074691701e-60
-1.1246489407933e-59
-8.9795661070966e-59
-6.6970838759834e-58
-4.6838434010898e-57
-3.0825075346434e-56
-1.9148128845897e-55
-1.1258115901888e-54
-6.2805946568566e-54
-3.3320243385927e-53
-1.6845204105056e-52
-8.130483163425e-52
-3.7529423898421e-51
-1.659306199917e-50
-7.037375210314e-50
-2.8668657168858e-49
-1.1231992256124e-48
-4.2370243251747e-48
-1.5405896830687e-47
-5.4046853530843e-47
-1.8311247106428e-46
-5.9966640789415e-46
-1.8997727510014e-45
-5.8267586596873e-45
-1.7314032036359e-44
-4.9877884773027e-44
-1.3938977677552e-43
-3.7811511059757e-43
-9.9615754233618e-43
-2.5501622821224e-42
-6.3467752888574e-42
-1.5363100357853e-41
-3.6184738810565e-41
-8.2958095910584e-41
-1.8519541697104e-40
-4.0269507086762e-40
-8.5313561179729e-40
-1.7614092747909e-39
-3.5447875258093e-39
-6.9546608841877e-39
-1.3303447320976e-38
-2.4812877180472e-38
-4.5124089057802e-38
-8.0005137564616e-38
-1.3826865073059e-37
-2.3285881258864e-37
-3.8196667716568e-37
-6.0986883906231e-37
-9.4694222777557e-37
-1.4279820334537e-36
-2.0875533035568e-36
-2.9506803298233e-36
-4.016799137946e-36
-5.2346858664312e-36
-6.466182895276e-36
-7.4371500218298e-36
-7.6753316277956e-36
-6.4368549377064e-36
-2.6258465601712e-36
5.2850060817296e-36
1.9321599436856e-35
4.2048799565477e-35
7.6567640539904e-35
1.2645289656813e-34
1.956172314337e-34
2.8809384289985e-34
4.0773826638064e-34
5.5786116033113e-34
7.4081623143457e-34
9.575792180768e-34
1.2073629909201e-33
1.4873183479918e-33
1.7923684105689e-33
2.1152158996496e-33
2.446547291327e-33
2.7754373665578e-33
3.0899344647184e-33
3.377783983044e-33
3.6272286813134e-33
3.8278121130167e-33
4.9898033377103e-32
0
0
0
0
0
1.8341405991701e-79
-1.478730357022e-76
-1.9939260146986e-74
-1.2729600328357e-72
-5.3347000720052e-71
-1.663190041905e-69
-4.1245470125063e-68
-8.4835577115913e-67
-1.4893454256472e-65
-2.2787632034136e-64
-3.0874206062058e-63
-3.7507727752502e-62
-4.1272788185218e-61
-4.1480537973221e-60
-3.8344046903928e-59
-3.2794928809635e-58
-2.6085179245486e-57
-1.9381768005143e-56
-1.3505263118466e-55
-8.8557373310252e-55
-5.4814621873229e-54
-3.2115705991196e-53
-1.785537000215e-52
-9.4412541902856e-52
-4.7576317239233e-51
-2.2891067307532e-50
-1.0534198636394e-49
-4.6439081784805e-49
-1.9640195519245e-48
-7.979472173663e-48
-3.1182608110113e-47
-1.1734544356264e-46
-4.2570298846774e-46
-1.4903001205687e-45
-5.0393993912193e-45
-1.6474310698052e-44
-5.2109958307604e-44
-1.5960952693059e-43
-4.7374084762363e-43
-1.3635382093293e-42
-3.808213308284e-42
-1.0326885463329e-41
-2.7205888779157e-41
-6.9668876765939e-41
-1.7350828264881e-40
-4.2045282601186e-40
-9.9180815998715e-40
-2.2784372230492e-39
-5.0994040972747e-39
-1.1123394094459e-38
-2.3656039685429e-38
-4.9065204422478e-38
-9.9279762465255e-38
-1.9602907275543e-37
-3.7779653746549e-37
-7.1082987401974e-37
-1.3059381135213e-36
-2.3431125651141e-36
-4.1060629741169e-36
-7.0282964819492e-36
-1.1751028642645e-35
-1.919057982112e-35
-3.0608558194231e-35
-4.767177162626e-35
-7.248046008122e-35
-1.0753363388262e-34
-1.5559030822724e-34
-2.193773788582e-34
-3.0109177944625e-34
-4.0164998328912e-34
-5.196554750142e-34
-6.5008729674945e-34
-7.8276101711373e-34
-9.0067529731309e-34
-9.7842658008553e-34
-9.8094113429814e-34
-8.6282412989213e-34
-5.6864425505705e-34
-3.4445300390667e-35
8.093067826976e-34
2.0332736657898e-33
3.7034139404932e-33
5.8741146669511e-33
8.5808476968229e-33
1.183309635801e-32
1.5608407403448e-32
1.9848428115956e-32
2.4457671869033e-32
2.9305518491375e-32
3.4231620277631e-32
3.9054491079903e-32
4.3582658496852e-32
4.7627416282434e-32
5.101597886371e-32
7.000516898434e-31
0
0
0
0
2.8194161163031e-91
5.7992554997122e-78
-2.8248529452483e-75
-3.970830671978e-73
-2.5586968252799e-71
-1.0747683396305e-69
-3.349707734291e-68
-8.2938200691401e-67
-1.7020375819292e-65
-2.9800226092109e-64
-4.5461400713212e-63
-6.1402336284603e-62
-7.4354353835972e-61
-8.154809664006e-60
-8.1684238447037e-59
-7.5252965888521e-58
-6.4144344980351e-57
-5.0847613040052e-56
-3.7652869220494e-55
-2.6148191399114e-54
-1.7088573930715e-53
-1.0542188911379e-52
-6.1562728457856e-52
-3.411534393058e-51
-1.7980726494934e-50
-9.03197422597e-50
-4.3320295863013e-49
-1.9873805855204e-48
-8.7345289810992e-48
-3.6829997043148e-47
-1.491953596289e-46
-5.8136083944764e-46
-2.1816265308227e-45
-7.8928202078754e-45
-2.7557705362642e-44
-9.2945097082442e-44
-3.0308902814559e-43
-9.5639716270601e-43
-2.9226241365224e-42
-8.6555868892917e-42
-2.4860659449248e-41
-6.9295948462486e-41
-1.8756535017227e-40
-4.9329020647244e-40
-1.2612437121785e-39
-3.136682182194e-39
-7.5915925357841e-39
-1.7889170698328e-38
-4.1061544989809e-38
-9.1843865459511e-38
-2.002656427536e-37
-4.2585890716106e-37
-8.8344545476171e-37
-1.7885064625205e-36
-3.5345204230969e-36
-6.8205986839856e-36
-1.2855221786819e-35
-2.3670355598129e-35
-4.2588348426345e-35
-7.4889231400701e-35
-1.2872431573699e-34
-2.1630765422969e-34
-3.5538308447546e-34
-5.7090396352777e-34
-8.9676959334462e-34
-1.3773351286436e-33
-2.068256299331e-33
-3.0360631880296e-33
-4.3557083740434e-33
-6.1052471615074e-33
-8.3568345995948e-33
-1.116342113895e-32
-1.4540941607028e-32
-1.8446440588003e-32
-2.2753439097588e-32
-2.7226845582307e-32
-3.1500712154536e-32
-3.5062946496891e-32
-3.7251494580246e-32
-3.726630202191e-32
-3.420039180774e-32
-2.7091617044309e-32
-1.4994155452229e-32
2.9341387269918e-33
2.7335423679905e-32
5.8556085731556e-32
9.6562625418156e-32
1.4088066246416e-31
1.905672116866e-31
2.4422347975646e-31
3.0005119511181e-31
3.5595043222094e-31
4.0965172726116e-31
4.5887077020121e-31
5.0147079557996e-31
7.310253704716e-30
0
0
0
0
1.8246999528414e-89
1.2194358612577e-76
-3.9937886065476e-74
-5.899035892531e-72
-3.8427931470646e-70
-1.619149306076e-68
-5.0474895031272e-67
-1.2483189194673e-65
-2.5569105556252e-64
-4.466260555597e-63
-6.7954578453066e-62
-9.1522397145916e-61
-1.1049867678616e-59
-1.2081805665442e-58
-1.2064100269395e-57
-1.1078959422201e-56
-9.413233843225e-56
-7.4378510686399e-55
-5.4899261793892e-54
-3.8001407628374e-53
-2.4754488100969e-52
-1.5221993182103e-51
-8.8604417900235e-51
-4.8942900214296e-50
-2.5713223874522e-49
-1.2875064217047e-48
-6.1558024200262e-48
-2.8152110747129e-47
-1.2334374766843e-46
-5.184884224054e-46
-2.0939453828141e-45
-8.1347146771033e-45
-3.0435349686744e-44
-1.0978607488712e-43
-3.8220126930465e-43
-1.2853682071669e-42
-4.1796741844737e-42
-1.3152310404193e-41
-4.0082062992526e-41
-1.1838868335905e-40
-3.3914680010782e-40
-9.4291145020521e-40
-2.5458460851918e-39
-6.6792708095606e-39
-1.7037483632104e-38
-4.2275836321759e-38
-1.0209582849937e-37
-2.4008221351962e-37
-5.4997686923693e-37
-1.2278552456497e-36
-2.6726626412363e-36
-5.6741617417901e-36
-1.1753765164165e-35
-2.3763926245607e-35
-4.6909914353115e-35
-9.043718653599e-35
-1.7032856374244e-34
-3.1347245670606e-34
-5.638809197808e-34
-9.9162431458724e-34
-1.7051594541746e-33
-2.8675921201859e-33
-4.717048417768e-33
-7.5906431255732e-33
-1.1950453480773e-32
-1.8408407161881e-32
-2.7745132533135e-32
-4.0915780990974e-32
-5.903395193005e-32
-8.3323622893836e-32
-1.150290223941e-31
-1.552743234339e-31
-2.0486941661601e-31
-2.6406509243141e-31
-3.3227050379939e-31
-4.0775696042176e-31
-4.8738343074556e-31
-5.663885266472e-31
-6.3829883582595e-31
-6.9500196183578e-31
-7.2702286276684e-31
-7.2402351713481e-31
-6.7551960217278e-31
-5.7177645866869e-31
-4.048143731421e-31
-1.6942534742016e-31
1.3591460827305e-31
5.0835757348062e-31
9.4032730300501e-31
1.4195718161631e-30
1.9296590506223e-30
2.4508978040771e-30
2.9616132664819e-30
3.4396603382829e-30
3.8640257489288e-30
6.0561919156189e-29
0
0
0
0
5.8739277244227e-88
1.9183856771064e-75
-4.4456396659814e-73
-6.9693099558158e-71
-4.5972424222901e-69
-1.9443640685824e-67
-6.0651284443839e-66
-1.4987196327717e-64
-3.0646987143604e-63
-5.3417131505498e-62
-8.1074056844027e-61
-1.0889907019929e-59
-1.3110593608908e-58
-1.4292855029496e-57
-1.422885784836e-56
-1.3026783314082e-55
-1.1033720343427e-54
-8.6908505775459e-54
-6.3944556658625e-53
-4.412173705484e-52
-2.8649605744786e-51
-1.7560863007498e-50
-1.0189168803801e-49
-5.6102582155795e-49
-2.9380641434936e-48
-1.4664542215914e-47
-6.989107900966e-47
-3.1861802937762e-46
-1.3915661532824e-45
-5.8312110789098e-45
-2.3476009634193e-44
-9.0917464227077e-44
-3.3910699758851e-43
-1.2194589014305e-42
-4.2323548647878e-42
-1.4190469008198e-41
-4.6004544392833e-41
-1.443311344731e-40
-4.3854990538581e-40
-1.2915233014947e-39
-3.6890613626348e-39
-1.0227020482358e-38
-2.7534388393743e-38
-7.2036663106099e-38
-1.8324354157003e-37
-4.5345372893397e-37
-1.0921611560137e-36
-2.5615262953398e-36
-5.8528504686899e-36
-1.3034085320111e-35
-2.8301960801304e-35
-5.99438140664e-35
-1.2388657405875e-34
-2.499238353862e-34
-4.9230909417914e-34
-9.4721769888274e-34
-1.7806169088795e-33
-3.2712891225638e-33
-5.8749766090289e-33
-1.0316564651594e-32
-1.7717423849788e-32
-2.9763831523174e-32
-4.8918972883796e-32
-7.8674526319909e-32
-1.2382756180451e-31
-1.9075417694894e-31
-2.8763352437821e-31
-4.2455638319874e-31
-6.1343435918723e-31
-8.6761376312276e-31
-1.2010978860962e-30
-1.6272986746883e-30
-2.1572785588372e-30
-2.7975075727859e-30
-3.547247778157e-30
-4.3957786117672e-30
-5.3197794504807e-30
-6.2812706901646e-30
-7.2265606419146e-30
-8.0866323987212e-30
-8.7793181654086e-30
-9.2134443894727e-30
-9.2948991564857e-30
-8.9342983912721e-30
-8.0556471236416e-30
-6.6051521011779e-30
-4.5591883902772e-30
-1.930392813465e-30
1.2290282159673e-30
4.8274317730356e-30
8.737594923368e-30
1.2804137208608e-29
1.6853907505847e-29
2.0708351986346e-29
2.4196619480013e-29
4.1452493301153e-28
0
0
0
0
1.2549345664197e-86
2.4083629464578e-74
-4.0433548678378e-72
-6.8171614359821e-70
-4.5619190914252e-68
-1.9380488612377e-66
-6.0514809112812e-65
-1.4944391875399e-63
-3.0514165237571e-62
-5.3078781754288e-61
-8.0371283826952e-60
-1.0767657216611e-58
-1.2927857998464e-57
-1.4053322759252e-56
-1.3949155579072e-55
-1.2732228597466e-54
-1.0751201361995e-53
-8.4420645472897e-53
-6.1919696742336e-52
-4.2589958650283e-51
-2.7567382982854e-50
-1.684378942154e-49
-9.7419538146258e-49
-5.3468876116413e-48
-2.7911869298423e-47
-1.3886889968613e-46
-6.5973141064102e-46
-2.9979569842052e-45
-1.3051780590531e-44
-5.4517660784273e-44
-2.1878491540011e-43
-8.4461257470135e-43
-3.1402698101222e-42
-1.125694566826e-41
-3.8945943095342e-41
-1.3016900033971e-40
-4.2067482276283e-40
-1.3156654625443e-39
-3.9851920803404e-39
-1.1699919221103e-38
-3.3316009755563e-38
-9.2076622269992e-38
-2.4714175860561e-37
-6.4461842909356e-37
-1.6348013906063e-36
-4.0333518702016e-36
-9.68561618737e-36
-2.2649488541967e-35
-5.1601095273733e-35
-1.1458246565185e-34
-2.480938217344e-34
-5.2399001544558e-34
-1.0799443730361e-33
-2.172724892572e-33
-4.2685331030514e-33
-8.1914511556106e-33
-1.5359651021601e-32
-2.8148977629349e-32
-5.0433561542414e-32
-8.8360841382699e-32
-1.5141995916466e-31
-2.5385262508588e-31
-4.1642776486485e-31
-6.6854884837743e-31
-1.0505804256488e-30
-1.6161664684001e-30
-2.4341725739443e-30
-3.5897311356636e-30
-5.1837284721664e-30
-7.3299817516231e-30
-1.0149355175367e-29
-1.3760204096404e-29
-1.8264848149389e-29
-2.3732274081521e-29
-3.0177936008532e-29
-3.7542292891995e-29
-4.567049342148e-29
-5.4296244358157e-29
-6.3033220245057e-29
-7.1377243250083e-29
-7.8721782010331e-29
-8.4388068188058e-29
-8.7669392972639e-29
-8.7887115891498e-29
-8.4453879869708e-29
-7.6937816299998e-29
-6.5120473066006e-29
-4.9041067442877e-29
-2.902058551404e-29
-5.6611826222392e-30
2.018092931786e-29
4.7447757892065e-29
7.4952482584524e-29
1.0146595967119e-28
1.2580792391259e-28
2.4114137580631e-27
0
0
0
0
2.0027605376644e-85
2.513247911808e-73
-3.0734101598732e-71
-5.6754714669978e-69
-3.8610283108663e-67
-1.6488291563522e-65
-5.1554706439107e-64
-1.2726842296882e-62
-2.5951901594631e-61
-4.5057554445875e-60
-6.8071866472739e-59
-9.0970381798322e-58
-1.0892836786731e-56
-1.1807919080019e-55
-1.1686396652526e-54
-1.0635156815783e-53
-8.9532121783545e-53
-7.00864354148e-52
-5.1246312339223e-51
-3.5138053470563e-50
-2.2672181792042e-49
-1.3808846164715e-48
-7.9611809963311e-48
-4.3555356178425e-47
-2.2663904514733e-46
-1.1239658049644e-45
-5.3224942829539e-45
-2.4108575262441e-44
-1.0461949656596e-43
-4.3558785207442e-43
-1.7424121482559e-42
-6.7047962077099e-42
-2.4847879080514e-41
-8.8784524837505e-41
-3.0617766726402e-40
-1.020032204989e-39
-3.2858560342672e-39
-1.024339879604e-38
-3.0927556619414e-38
-9.0506211526502e-38
-2.5689130698655e-37
-7.0769934233722e-37
-1.8934376204475e-36
-4.9228426769296e-36
-1.2444860224961e-35
-3.0606023215879e-35
-7.3263630637443e-35
-1.7078326682422e-34
-3.8786244870163e-34
-8.5857048981598e-34
-1.8531937917149e-33
-3.9019730956262e-33
-8.0173270716172e-33
-1.6080959784162e-32
-3.1497682160866e-32
-6.0265542508037e-32
-1.1267187317358e-31
-2.0589355703129e-31
-3.6784802488443e-31
-6.4269217887938e-31
-1.0983729876637e-30
-1.8365595453581e-30
-3.0050883860346e-30
-4.8126876833192e-30
-7.5451783384836e-30
-1.1581574287505e-29
-1.740755931353e-29
-2.5622804448798e-29
-3.6937682690914e-29
-5.2154379444944e-29
-7.2127476602365e-29
-9.7700092801247e-29
-1.2961380963821e-28
-1.6839397025734e-28
-2.1421634232549e-28
-2.6676615319502e-28
-3.2510541176051e-28
-3.8756829284586e-28
-4.5170615736331e-28
-5.1430260795084e-28
-5.714742615401e-28
-6.1886461987208e-28
-6.5192716653342e-28
-6.6628092520635e-28
-6.5810903700728e-28
-6.2456058797522e-28
-5.6410997326828e-28
-4.7682804719634e-28
-3.6452584290081e-28
-2.3074434374907e-28
-8.0581152210972e-29
7.9635455931263e-29
2.4279557169347e-28
4.0153473058473e-28
5.4878430024752e-28
1.2175978848604e-26
0
0
0
0
2.5490838355886e-84
2.2423303460538e-72
-1.975578540778e-70
-4.1024360768664e-68
-2.8444015694611e-66
-1.2220072703377e-64
-3.8276584401832e-63
-9.4476152012852e-62
-1.9242577954677e-60
-3.3349489136762e-59
-5.0274322483353e-58
-6.702236176753e-57
-8.0042344539192e-56
-8.6526923886487e-55
-8.5391097152691e-54
-7.7481043968437e-53
-6.5031410234789e-52
-5.0751602450984e-51
-3.6994136695266e-50
-2.5286499028458e-49
-1.6264240535494e-48
-9.8745662885378e-48
-5.6747996825769e-47
-3.0947135748446e-46
-1.6051436065792e-45
-7.9346489985918e-45
-3.7452523653523e-44
-1.6909274881075e-43
-7.3139216683767e-43
-3.0352514793505e-42
-1.2101753628646e-41
-4.6415064679419e-41
-1.7144953162107e-40
-6.105983726056e-40
-2.0987523354034e-39
-6.9689754544983e-39
-2.2375313751627e-38
-6.952300778773e-38
-2.0921480727185e-37
-6.1021961643293e-37
-1.7263028306201e-36
-4.7399658160463e-36
-1.2639665088289e-35
-3.2753541891652e-35
-8.2525854647474e-35
-2.0228558963419e-34
-4.826199928499e-34
-1.1213013166186e-33
-2.5381471499018e-33
-5.5998918258181e-33
-1.2047375989797e-32
-2.5282966402934e-32
-5.1778638819229e-32
-1.035181463271e-31
-2.0210359741457e-31
-3.8544661930435e-31
-7.1832458883085e-31
-1.3084889727126e-30
-2.3304071791207e-30
-4.0589960281711e-30
-6.9157026257402e-30
-1.1528790672365e-29
-1.8808443556721e-29
-3.0035051120439e-29
-4.6955629765642e-29
-7.187872836263e-29
-1.0775266156317e-28
-1.5820612150611e-28
-2.2752519772418e-28
-3.2053801099607e-28
-4.4237919142018e-28
-5.9811289269189e-28
-7.9220605806833e-28
-1.0278634426944e-27
-1.30626132111e-27
-1.6257451565283e-27
-1.9810835340354e-27
-2.3628910079593e-27
-2.7573405363043e-27
-3.14627705197e-27
-3.5078146909328e-27
-3.8174516347876e-27
-4.0496725579961e-27
-4.1799371113828e-27
-4.1868843348889e-27
-4.054529152201e-27
-3.7741989726415e-27
-3.3459635506337e-27
-2.7793522772476e-27
-2.0932266792854e-27
-1.3147729333337e-27
-4.7768601562649e-28
3.8028217270779e-28
1.2201590496555e-27
2.0046743945932e-27
5.4245828522274e-26
0
0
0
0
2.6952114688485e-83
1.7460556505546e-71
-1.0744679888831e-69
-2.6133770864252e-67
-1.8523128719468e-65
-8.0132868311845e-64
-2.5154983917567e-62
-6.2094996841916e-61
-1.2634532255201e-59
-2.1860534938814e-58
-3.2885945691929e-57
-4.3737313306383e-56
-5.2099369002411e-55
-5.6166812904192e-54
-5.5272419508817e-53
-5.000591683429e-52
-4.1845607895224e-51
-3.2557714253385e-50
-2.365895688268e-49
-1.6121091648744e-48
-1.0336409070364e-47
-6.2556613384095e-47
-3.5835689789649e-46
-1.9479944262098e-45
-1.0071081985667e-44
-4.962250632544e-44
-2.3346144229464e-43
-1.0505990634754e-42
-4.5293460556843e-42
-1.8734778956114e-41
-7.4450333871716e-41
-2.8460182788185e-40
-1.0477833362368e-39
-3.7191481370862e-39
-1.2740837142596e-38
-4.2164894337404e-38
-1.3492517113618e-37
-4.1782141467282e-37
-1.2531108416924e-36
-3.6426285963777e-36
-1.0270089462848e-35
-2.8103342326134e-35
-7.4686314562164e-35
-1.9287849961943e-34
-4.8432099618418e-34
-1.1831065214799e-33
-2.8130541965827e-33
-6.5133984524689e-33
-1.4693109398227e-32
-3.2306338051301e-32
-6.926468922648e-32
-1.4486370144267e-31
-2.9566221485564e-31
-5.8908459864151e-31
-1.146184330113e-30
-2.1785532926672e-30
-4.0462586450426e-30
-7.3457925668317e-30
-1.3038999324347e-29
-2.2635221006788e-29
-3.8438613346109e-29
-6.3869591487403e-29
-1.0386237633666e-28
-1.6532840134729e-28
-2.576571276754e-28
-3.9320175507583e-28
-5.8766902200285e-28
-8.6030328152389e-28
-1.2337309220342e-27
-1.7333193762981e-27
-2.3859137417807e-27
-3.2178510964526e-27
-4.2522229037178e-27
-5.5054594430229e-27
-6.983440038857e-27
-8.6774741387088e-27
-1.0560628812132e-26
-1.2584970948447e-26
-1.4680319769976e-26
-1.6755044928583e-26
-1.8699286341904e-26
-2.0390719171732e-26
-2.1702664712363e-26
-2.251399670459e-26
-2.2719966355959e-26
-2.2242825522282e-26
-2.1041016580639e-26
-1.9115752509326e-26
-1.6514038967653e-26
-1.3327569812991e-26
-9.6874092189259e-27
-5.754888247974e-27
-1.7096142149839e-27
2.264154057566e-27
5.9913259739151e-27
2.1604854579324e-25
0
0
0
0
2.434369433911e-82
1.2054194780868e-70
-4.8589249269257e-69
-1.4839866257883e-66
-1.0792348108852e-64
-4.7064212024479e-63
-1.4813820579092e-61
-3.6581324141448e-60
-7.4369819585322e-59
-1.2847659976879e-57
-1.9288661957904e-56
-2.5594049376413e-55
-3.0410261625443e-54
-3.2696340820148e-53
-3.2085398093257e-52
-2.8944078855086e-51
-2.4148821294679e-50
-1.8731919920905e-49
-1.3570180246388e-48
-9.2178362474363e-48
-5.8916152192239e-47
-3.5543142306e-46
-2.0295777311157e-45
-1.099703719566e-44
-5.667009526313e-44
-2.7831647087653e-43
-1.3051216422303e-42
-5.8538577282912e-42
-2.5153827978836e-41
-1.0369910106259e-40
-4.107197077881e-40
-1.5648181361671e-39
-5.7416924035444e-39
-2.0311838004254e-38
-6.9348355887649e-38
-2.2872671546224e-37
-7.2942694583062e-37
-2.2511156245957e-36
-6.7283763143083e-36
-1.9491480347955e-35
-5.4765726682883e-35
-1.4934577760595e-34
-3.9552334639492e-34
-1.0179043034163e-33
-2.5470915697588e-33
-6.2003975999879e-33
-1.4691115135605e-32
-3.3897065725455e-32
-7.6197920013351e-32
-1.6695122338463e-31
-3.5668445216615e-31
-7.4336261016945e-31
-1.5118363471014e-30
-3.0016084106666e-30
-5.8196721207544e-30
-1.1022521969642e-29
-2.0400324432378e-29
-3.6905885348012e-29
-6.5279788259302e-29
-1.1292807192355e-28
-1.9110592506444e-28
-3.1644479520246e-28
-5.1282514669547e-28
-8.1353755618812e-28
-1.263587966013e-27
-1.9218904228481e-27
-2.8629611936147e-27
-4.1775992643463e-27
-5.9719366471288e-27
-8.3642019185813e-27
-1.1478599218897e-26
-1.543589529747e-26
-2.0340647791008e-26
-2.6265493377259e-26
-3.3233507291332e-26
-4.1200273207086e-26
-5.0037860894305e-26
-5.9523276352271e-26
-6.9334005922629e-26
-7.9052931475615e-26
-8.818411217953e-26
-9.6179748353415e-26
-1.0247718563194e-25
-1.0654327791935e-25
-1.0792204754366e-25
-1.0628060974902e-25
-1.0144797469687e-25
-9.344172655146e-26
-8.2478711699411e-26
-6.8967624200974e-26
-5.3483519745109e-26
-3.6726507012232e-26
-1.9468822795021e-26
-2.4958977241672e-27
1.3452342806809e-26
7.7735617580453e-25
0
0
0
0
1.9176357319381e-81
7.4700320707563e-70
-1.715876173403e-68
-7.5774127328205e-66
-5.6804884041379e-64
-2.5002382913966e-62
-7.8950856809947e-61
-1.950911304879e-59
-3.9635936025903e-58
-6.8374709980457e-57
-1.024565894542e-55
-1.3564371946423e-54
-1.6076905944276e-53
-1.7239670373048e-52
-1.6870533920898e-51
-1.5175028311366e-50
-1.2623505801434e-49
-9.7623227996839e-49
-7.0505152017842e-48
-4.7743023189857e-47
-3.0419020506706e-46
-1.8292922059362e-45
-1.0412083008057e-44
-5.623438364833e-44
-2.8884525637937e-43
-1.4139265877641e-42
-6.6085759654642e-42
-2.9543424026831e-41
-1.2652541526001e-40
-5.1987301989287e-40
-2.0521555378061e-39
-7.7922896584601e-39
-2.8495207319504e-38
-1.0046299455227e-37
-3.4183180510123e-37
-1.123587961218e-36
-3.5709223931522e-36
-1.0982454952675e-35
-3.2712185819485e-35
-9.4435758904623e-35
-2.6441593138773e-34
-7.1854446299754e-34
-1.8963114129338e-33
-4.8631349400306e-33
-1.2126092472536e-32
-2.941426862173e-32
-6.9446583708918e-32
-1.5966563050151e-31
-3.5763621084604e-31
-7.8078792039737e-31
-1.6621458961854e-30
-3.4516270621592e-30
-6.994605299263e-30
-1.3837105855954e-29
-2.6731329438529e-29
-5.0446656905302e-29
-9.3028723050613e-29
-1.6768880819721e-28
-2.9554005148311e-28
-5.0941329116168e-28
-8.5896580275376e-28
-1.4172184847821e-27
-2.2884971265517e-27
-3.6174908705438e-27
-5.5987667524721e-27
-8.4856048989156e-27
-1.2596486320906e-26
-1.8317052635144e-26
-2.6094979764692e-26
-3.6425108638055e-26
-4.9822504716873e-26
-6.6781998880517e-26
-8.7724253581204e-26
-1.1293045423123e-25
-1.4247016665132e-25
-1.7612940640993e-25
-2.1334809768523e-25
-2.531773630557e-25
-2.9426701865062e-25
-3.348919269889e-25
-3.7302239774808e-25
-4.0643884990428e-25
-4.3288500935774e-25
-4.5024784210751e-25
-4.567471983603e-25
-4.5111473753256e-25
-4.3274088347422e-25
-4.0177071510851e-25
-3.5913473865562e-25
-3.0650781929282e-25
-2.4619815503874e-25
-1.8097678134665e-25
-1.1386539770631e-25
-4.7905206740223e-26
1.4068750274968e-26
2.5475407563509e-24
0
0
0
0
1.3383577191546e-80
4.1972286211241e-69
-3.5900831864841e-68
-3.5021638937632e-65
-2.722219183511e-63
-1.2110966461807e-61
-3.8390437626542e-60
-9.4958955888191e-59
-1.9283659734702e-57
-3.3222550218794e-56
-4.9691754153634e-55
-6.5644223045697e-54
-7.7614493608187e-53
-8.3010545184082e-52
-8.1009714540747e-51
-7.2659995669031e-50
-6.026522227985e-49
-4.6465575093597e-48
-3.34553936755e-47
-2.2584066321358e-46
-1.4343900919657e-45
-8.5984518437399e-45
-4.8783967681997e-44
-2.62622804904e-43
-1.3445488838678e-42
-6.560091283398e-42
-3.0560054712071e-41
-1.3616404444033e-40
-5.8120239315305e-40
-2.3800601078968e-39
-9.3634363640266e-39
-3.543382059828e-38
-1.2913571517312e-37
-4.5372867828418e-37
-1.5385519336068e-36
-5.039767077833e-36
-1.5961793365597e-35
-4.8920719525729e-35
-1.4520761774757e-34
-4.1773136187699e-34