/*--------------------------------*- C++ -*----------------------------------*\
  =========                 |
  \\      /  F ield         | OpenFOAM: The Open Source CFD Toolbox
   \\    /   O peration     | Website:  https://openfoam.org
    \\  /    A nd           | Version:  7
     \\/     M anipulation  |
\*---------------------------------------------------------------------------*/
FoamFile
{
    version     2.0;
    format      ascii;
    class       volScalarField;
    location    "0.3";
    object      alpha.water;
}
// * * * * * * * * * * * * * * * * * * * * * * * * * * * * * * * * * * * * * //

dimensions      [0 0 0 0 0 0 0];

internalField   nonuniform List<scalar> 
6000
(
0
0
0
0
0
0
0
0
0
0
0
0
0
0
0
0
0
0
0
0
0
0
0
0
0
0
0
0
0
0
0
0
0
0
0
0
0
0
0
0
0
0
0
0
0
0
0
0
0
0
0
0
0
0
0
0
0
0
0
0
0
0
0
0
0
0
0
0
0
0
0
0
0
0
0
0
0
0
0
0
0
0
0
0
0
0
0
0
0
0
0
0
0
0
0
0
0
0
0
0
0
0
0
0
0
0
0
0
0
0
0
0
0
0
0
0
0
0
0
0
0
0
0
0
0
0
0
0
0
0
0
0
0
0
0
0
0
0
0
0
0
0
0
0
0
0
0
0
0
0
0
0
0
0
0
0
0
0
0
0
0
0
0
0
0
0
0
0
0
0
0
0
0
0
0
0
0
0
0
0
0
0
0
0
0
0
0
0
0
0
0
0
0
0
0
0
0
0
0
0
0
0
0
0
0
0
0
0
0
0
0
0
0
0
0
0
0
0
0
0
0
0
0
0
0
0
0
0
0
0
0
0
0
0
0
0
0
0
0
0
0
0
0
0
0
0
0
0
0
0
0
0
0
0
0
0
0
0
0
0
0
0
0
0
0
0
0
0
0
0
0
0
0
0
0
0
0
0
0
0
0
0
0
0
0
0
0
0
0
0
0
0
0
0
0
0
0
0
0
0
0
0
0
0
0
0
0
0
0
0
0
0
0
0
0
0
0
2.5525857669549e-36
7.9958917363707e-36
1.5688566480984e-35
9.2724754317347e-36
2.8478442999807e-36
2.1908913833705e-37
2.2938762692141e-38
8.1530399716746e-39
2.0677845023402e-39
1.3146440405471e-40
2.0014628550503e-41
3.9366373382569e-42
7.4244322085352e-43
3.0212264664931e-43
3.105329110452e-44
5.419440145984e-45
2.2204002953554e-45
2.2328376921787e-46
7.8218034428954e-47
8.4399490014836e-48
1.4169137259651e-48
2.7153669580544e-49
5.4027595098559e-50
1.0551061151187e-50
4.6342849719638e-51
5.5359427951087e-52
6.1118952327263e-53
1.4595171670227e-53
2.7528427251713e-54
9.669807583925e-55
1.2575831262407e-55
4.8236695109318e-56
1.0486755039835e-56
1.5135173566947e-57
1.6652939531254e-58
2.869862106953e-59
9.1664088814848e-60
1.1046292191982e-60
1.9995600172143e-61
6.665869264501e-62
7.6999759254858e-63
2.4103923109581e-63
2.8471626677821e-64
5.1448918201168e-65
1.6589100519299e-65
1.9643251452539e-66
5.6039318589952e-67
7.1404452515092e-68
1.3028325831609e-68
4.0847330626421e-69
4.9313373876285e-70
1.4498135402455e-70
1.8023864695641e-71
3.2609652075992e-72
1.2928417993583e-72
1.761027040012e-73
3.5722768217792e-74
4.5783551073092e-75
8.3966440937845e-76
2.304377428747e-76
3.1203389030531e-77
3.6959852314508e-78
1.0417356376066e-78
1.9953478160833e-79
6.1445520928122e-80
1.5743748417363e-80
3.2400956067686e-81
6.3167539173378e-82
9.0244479743962e-83
1.0719170479046e-83
1.9459700455922e-84
6.7079074083324e-85
1.1876870900131e-85
1.3926164950534e-86
3.8482600002047e-87
9.7719096450826e-88
2.0024618981064e-88
3.8482661080693e-89
7.3375883299715e-90
7.1408296177581e-91
2.3328712112285e-91
4.5784198889782e-92
1.5383259787383e-92
0
0
0
0
0
0
0
0
0
6.5820417077374e-29
1.1210387714598e-45
1.4012984643248e-46
6.970911896245e-30
7.006492315531e-47
0
0
0
1.4897388290077e-32
9.3434616474018e-36
1.5688566480984e-35
1.5216088005731e-35
3.0255441366778e-35
5.6065021627307e-35
1.4832672649817e-35
1.5950650210145e-38
-5.2947913572005e-38
8.157711537644e-40
1.5134766317507e-40
2.8915458919252e-41
5.5132199110894e-42
4.9904286828376e-40
2.1468778888433e-43
4.0471851870934e-44
7.6346549972246e-42
1.5695254264593e-45
1.3034782738426e-42
1.1868982775122e-46
1.121278935193e-47
8.1497043578957e-46
4.0722912900668e-49
7.8161971970653e-50
9.5447475018343e-48
3.0250628714275e-51
5.6582564381562e-52
5.4320553596817e-51
2.068957716839e-53
4.1412551592021e-54
1.1879587416422e-54
1.5200881689431e-51
9.5133906184764e-54
6.3071918257914e-57
1.1764165143161e-57
2.2245850912492e-58
8.579770664121e-55
5.899938517598e-59
1.5595445680559e-60
6.2959650044052e-57
5.8054855863406e-62
3.2833340217521e-58
2.1449592514051e-63
5.6524314279137e-63
3.2486735809146e-60
1.4954399642207e-65
1.6754375525335e-61
5.4693721179322e-67
1.0305222837418e-67
1.5348060457951e-63
3.7951848499083e-69
7.2758769258622e-65
1.3880393586477e-70
1.2169056124904e-69
1.14710895683e-66
7.1715814618829e-71
3.6472592369731e-68
3.5805789458223e-74
6.7384814160608e-75
5.2023589919536e-70
3.3050557094215e-74
4.48805170537e-77
1.0929204565182e-75
1.615995031103e-78
1.0884582291344e-74
3.2113612569704e-74
1.218541853069e-75
1.5705779475518e-76
3.2940679216391e-76
2.0887334388862e-80
1.5996397667356e-83
2.1675492349349e-79
6.896190006831e-80
1.119669747282e-85
1.383082136123e-81
3.7902543754235e-81
1.3442593634448e-82
1.7418783680471e-83
3.6998430317166e-83
2.3017684801157e-87
1.7657068603145e-84
4.8932444474433e-86
3.3580135289745e-86
0
0
0
0
0
0
0
7.475208025932e-09
1.1865706609352e-07
9.7319959241439e-07
6.8790976822784e-06
4.6694285684607e-05
0.0002072926195899
0.00040582888115679
0.00041930929227354
0.00035592367397879
0.00022331815283687
7.7067974128987e-05
9.7057737453843e-06
1.5565285739325e-07
-7.2859397257542e-11
-1.1603081402124e-11
-8.9670646359735e-13
0
6.6493666545043e-17
6.0365704437824e-15
9.4223071310399e-13
1.3778802681656e-12
9.2342293113855e-13
3.2042782508022e-13
6.8357331555633e-14
1.2258340726753e-14
2.3352972290547e-15
4.8432740433824e-16
1.0237235341233e-16
2.1387264652818e-17
4.4182169387391e-18
9.0725473193578e-19
1.8555270214784e-19
3.7806538266649e-20
7.6749164623126e-21
1.5527196705237e-21
3.1314089780882e-22
6.2967110417881e-23
1.2627038889317e-23
2.525690682163e-24
5.0398674741977e-25
1.0034161010759e-25
1.9935300265854e-26
3.952718299073e-27
7.822532431131e-28
1.5453268697264e-28
3.0475743879934e-29
6.0004744481582e-30
1.1796351504744e-30
2.3156432632729e-31
4.5392715898259e-32
8.8862377003129e-33
1.7373677792852e-33
3.392585765977e-34
6.6169336242817e-35
1.2891095833037e-35
2.5087015093463e-36
4.8769921856932e-37
9.4714353277482e-38
1.837621164165e-38
3.5619473397827e-39
6.8980188390761e-40
1.3346884669259e-40
2.5802789385517e-41
4.9842123218578e-42
9.6201276747547e-43
1.8553689717279e-43
3.5756507496296e-44
6.885967182486e-45
1.3251623802615e-45
2.5484513707035e-46
4.8977330559871e-47
9.4066157450246e-48
1.8055058464151e-48
3.4633703302611e-49
6.6395787113456e-50
1.272126790137e-50
2.4359872031811e-51
4.662088546733e-52
8.9177004152043e-53
1.7048955740863e-53
3.257772173322e-54
6.2219558199427e-55
1.187740297008e-55
2.2662576971261e-56
4.3221021251634e-57
8.2391653058198e-58
1.5699225795246e-58
2.9900898560286e-59
5.692556007552e-60
1.0831470614541e-60
2.0696992344077e-61
3.5805053603362e-62
1.1793516270448e-62
0
0
0
0
0
0
8.9065944494895e-09
2.247172274738e-07
2.5401953636144e-06
1.7400242530336e-05
8.9896519451536e-05
0.00045045459775525
0.0022637595117037
0.0084066905124511
0.012531791088749
0.010998647075666
0.0066914516339379
0.0022252614194269
0.00023014213653864
5.9276257642317e-06
5.6969789209951e-07
1.3918573204911e-07
2.5328508553644e-08
4.617196891233e-09
8.4900300155918e-10
1.5933485455061e-10
3.1504915115785e-11
7.4245650321921e-12
6.7300435261059e-12
5.2454203110181e-12
2.0034802834822e-12
4.6270790407063e-13
8.9181740074204e-14
1.7600969679624e-14
3.701488979074e-15
7.9155598757726e-16
1.6766628600814e-16
3.5140498683057e-17
7.3153411531626e-18
1.5152471060788e-18
3.1243165633743e-19
6.4146128269805e-20
1.3118013023145e-20
2.672899642949e-21
5.4279177607054e-22
1.0988137772665e-22
2.2179287934795e-23
4.4646398517078e-24
8.9642685261464e-25
1.7955597282457e-25
3.5884101067238e-26
7.1561034521411e-27
1.424208990574e-27
2.8290418647111e-28
5.6093912834439e-29
1.1103032331538e-29
2.1940815754778e-30
4.3289475835319e-31
8.528270115162e-32
1.6777108808352e-32
3.2959253541183e-33
6.4664573316536e-34
1.2670897399038e-34
2.4798297587704e-35
4.8476378740614e-36
9.4656691167002e-37
1.8463040294015e-37
3.5975159195442e-38
7.0027035068368e-39
1.3617810085219e-39
2.6457056274365e-40
5.1354903495692e-41
9.9595838879886e-42
1.9298849926514e-42
3.7364923118935e-43
7.2285317121026e-44
1.3973326221888e-44
2.6991256280694e-45
5.2099003198839e-46
1.0049113089629e-46
1.9369867149692e-47
3.7310781319822e-48
7.1822196932091e-49
1.38167906843e-49
2.6563605204039e-50
5.1039345617681e-51
9.8009468706313e-52
1.8809713391589e-52
3.6078927999141e-53
6.916529534982e-54
1.3252311809966e-54
2.5378694435733e-55
4.8576514388583e-56
9.2932557850335e-57
1.7770461239554e-57
3.3964500432036e-58
6.4877562332922e-59
1.2440056357935e-59
2.1735538204691e-60
7.0549504110576e-61
0
0
0
0
0
3.4052957565469e-09
1.3333055142299e-07
2.1467287585045e-06
2.13414150629e-05
0.00014410636056239
0.00073010013221446
0.0031624679617625
0.013080477716377
0.055094841066756
0.19605131415701
0.28747850821158
0.19133507141784
0.053461025915702
0.0040039429120276
0.00012301231958719
1.9157536785244e-05
4.1940134795141e-06
7.8188803350657e-07
1.4560746632153e-07
2.7120045012848e-08
5.0643973958905e-09
9.5529816594789e-10
1.8749743779684e-10
3.9974900456394e-11
2.3494060050913e-11
1.5412636773587e-11
6.6048545225229e-12
1.6903169349094e-12
3.4762730092309e-13
7.0983517502701e-14
1.5093273693003e-14
3.2481034149031e-15
6.9363496035765e-16
1.4674815127112e-16
3.0833751471421e-17
6.4430303680368e-18
1.3396920718945e-18
2.7729009559431e-19
5.715222550697e-20
1.1733945249233e-20
2.4004539641474e-21
4.8943200213882e-22
9.948090353434e-23
2.0161537621282e-23
4.0749598049792e-24
8.2150487087808e-25
1.652147083788e-25
3.3151084027975e-26
6.6375949694135e-27
1.326284546638e-27
2.6449687010277e-28
5.2650628314545e-29
1.0462221146482e-29
2.0754716462843e-30
4.1106922486245e-31
8.1292172743578e-32
1.6052636297199e-32
3.1654410214049e-33
6.2335714477153e-34
1.2259635783398e-34
2.4081177751614e-35
4.7245201900268e-36
9.2584144987768e-37
1.8123098088408e-37
3.5437423134962e-38
6.9221613699342e-39
1.3507853567997e-39
2.6333606906052e-40
5.1289365187301e-41
9.9804509835039e-42
1.940399364209e-42
3.7693098733539e-43
7.3159950712703e-44
1.4188496171598e-44
2.749544779113e-45
5.3242237486244e-46
1.0302249047536e-46
1.9920342588119e-47
3.8490979361239e-48
7.4323567527866e-49
1.4341918577738e-49
2.7657215200236e-50
5.3301227287375e-51
1.0265977814918e-51
1.9760790175413e-52
3.8015038258069e-53
7.3090296468881e-54
1.4045040000211e-54
2.6974337479121e-55
5.1778382401895e-56
9.9339694014481e-57
1.9047015069165e-57
3.6646480214939e-58
6.4603908394725e-59
2.071434591554e-59
0
0
0
0
0
3.4998597389601e-08
9.1729489426394e-07
1.242994404795e-05
0.00011069834682251
0.00073807762466418
0.0039073817877703
0.017119029379872
0.073837448325537
0.33003314463519
0.75955080966159
0.87821914230378
0.84003351344426
0.59870493581426
0.15453314243405
0.0092632794260266
0.00043667484687191
9.2128925254915e-05
1.8292629129835e-05
3.4341415019088e-06
6.4469254620607e-07
1.2103703344619e-07
2.2758683300445e-08
4.3078902735957e-09
8.3362123007811e-10
1.7851812304226e-10
6.1816943502673e-11
3.5138311377677e-11
1.5651363182987e-11
4.1576982363204e-12
8.9711698480127e-13
1.8941676627551e-13
4.0758254766302e-14
8.8188786313477e-15
1.8955957784841e-15
4.0410175812259e-16
8.5561595828431e-17
1.8012698748062e-17
3.7725882435691e-18
7.8639602721577e-19
1.632097508594e-19
3.3736427743228e-20
6.9475035063629e-21
1.4257676397986e-21
2.9164874204163e-22
5.947757858551e-23
1.2095103307828e-23
2.4530275871802e-24
4.9624755532828e-25
1.0015161887526e-25
2.0166776628424e-26
4.0521409697571e-27
8.1254728877671e-28
1.6261912405698e-28
3.2485758655352e-29
6.4781268580791e-30
1.2896590036758e-30
2.5633088739507e-31
5.0869447456294e-32
1.0080233867015e-32
1.9946532072672e-33
3.9415901754907e-34
7.7786708878898e-35
1.533170372335e-35
3.018189535748e-36
5.9346143157067e-37
1.1655909364797e-37
2.2867794863723e-38
4.4816998341783e-39
8.7743841837833e-40
1.7161695774319e-40
3.3534124510054e-41
6.5465100721602e-42
1.2768534323803e-42
2.4882399309623e-43
4.8447857090999e-44
9.425374114844e-45
1.8322066156663e-45
3.5588672345101e-46
6.9074835351142e-47
1.3396998388636e-47
2.5964693176528e-48
5.0286920660406e-49
9.732643777083e-50
1.882426460144e-50
3.6385117617586e-51
7.0283763478751e-52
1.3568077523352e-52
2.6177012196218e-53
5.0473848083445e-54
9.7266481391818e-55
1.8733439731996e-55
3.6056871908106e-56
6.9616861209132e-57
1.2377857038073e-57
3.9261634670774e-58
0
0
0
0
2.2367301098303e-28
1.6815178511314e-07
3.9902574629441e-06
5.0735968335692e-05
0.00044299424146179
0.0029512672868153
0.015914036788326
0.080901491598064
0.39123218312735
0.83504958173277
0.97403635381847
0.99224197686091
0.9931541980544
0.97025573522137
0.80246062215928
0.23939682839939
0.01680015081061
0.0011483647675363
0.00024918137749079
4.9550362080765e-05
9.5048982725138e-06
1.8185922560019e-06
3.4771028393446e-07
6.6447056029622e-08
1.2751157794002e-08
2.4887041626534e-09
5.2715405027774e-10
1.4417042279283e-10
6.8025611583968e-11
2.783042777869e-11
7.3973869084973e-12
1.6414234482298e-12
3.5508283836504e-13
7.741307143871e-14
1.6881376413053e-14
3.6554841241035e-15
7.8537854128453e-16
1.6760502803756e-16
3.5558589801093e-17
7.5039417151219e-18
1.5758289642775e-18
3.2943438529983e-19
6.8582929180918e-20
1.422264374746e-20
2.9388475909082e-21
6.0521405720126e-22
1.2424196732564e-22
2.542951169362e-23
5.1903089197726e-24
1.0565792441786e-24
2.1454913915476e-25
4.3463444788332e-26
8.7850919081003e-27
1.7719082364114e-27
3.5665895312131e-28
7.165111020379e-29
1.4367742031683e-29
2.8759752568522e-30
5.7470580397421e-31
1.1465695898235e-31
2.2839060408587e-32
4.5426134407939e-33
9.0221107302743e-34
1.7894060895841e-34
3.5442979184562e-35
7.0112097016717e-36
1.385213818323e-36
2.7335082830803e-37
5.3879217799559e-38
1.0608063997445e-38
2.0863190555767e-39
4.0989256397046e-40
8.0448564990215e-41
1.5773898321614e-41
3.0899049409404e-42
6.0471231095055e-43
1.1823928738017e-43
2.3099110512738e-44
4.5087881045673e-45
8.7935795353412e-46
1.7136519151211e-46
3.3368746761067e-47
6.4927171926989e-48
1.2623824445025e-48
2.4526833970582e-49
4.7619628939296e-50
9.2391510558156e-51
1.7913768287017e-51
3.4710243526718e-52
6.7212636018202e-53
1.3006882235012e-53
2.5155443052024e-54
4.8617345253604e-55
9.4224499356122e-56
1.6898019830437e-56
5.3065446337686e-57
0
0
0
0
-5.3662969491656e-50
4.6359011377117e-07
1.1419440944135e-05
0.00014719283981309
0.0013523577190211
0.0096487559078259
0.058820133812311
0.34313608150255
0.83419496529373
0.97772707148684
0.99389964065957
0.99779640163946
0.99871774191075
0.99864553203217
0.98634996838108
0.8071705436055
0.21759615286623
0.014992777722984
0.0016201599460714
0.00037310993624219
7.4626191800697e-05
1.4822591125355e-05
2.9329857999281e-06
5.7760402679666e-07
1.1376689580691e-07
2.2450841069558e-08
4.5209895686734e-09
9.8269632022355e-10
2.6272440675423e-10
1.0460728906115e-10
3.734359470376e-11
9.5780329504932e-12
2.1548788752775e-12
4.7575158310327e-13
1.0518345821261e-13
2.3157690240658e-14
5.0584806568707e-15
1.0965442388138e-15
2.3612191304846e-16
5.0541981049651e-17
1.0759512964403e-17
2.2789960950229e-18
4.8047454895957e-19
1.0086007173077e-19
2.108724679713e-20
4.3922572238078e-21
9.1164651167717e-22
1.8859459158421e-22
3.8893796600804e-23
7.9975378731537e-24
1.6399357923591e-24
3.3539430144567e-25
6.8422862895962e-26
1.3925707455643e-26
2.8278300727019e-27
5.730007287237e-28
1.1586848110517e-28
2.3384234200292e-29
4.7104823390914e-30
9.4716624660932e-31
1.9012429547633e-31
3.8100397901177e-32
7.6230705695623e-33
1.522878443373e-33
3.0378069575085e-34
6.0511519803894e-35
1.203707303972e-35
2.391274553794e-36
4.744422226908e-37
9.4015864807535e-38
1.8608033966788e-38
3.6787313150272e-39
7.2645671706548e-40
1.4330145191104e-40
2.8238066407124e-41
5.5587417679716e-42
1.0931713604743e-42
2.1477445053817e-43
4.2157172548494e-44
8.2673468062035e-45
1.6198600640197e-45
3.1711433561687e-46
6.2028491745873e-47
1.2123082380572e-47
2.3675028520584e-48
4.6198975621287e-49
9.0083857375837e-50
1.755264133563e-50
3.4176424831078e-51
6.6497742516281e-52
1.2929759985977e-52
2.5123798956875e-53
4.8782123767472e-54
9.4952326221817e-55
1.718320186182e-55
5.345999954031e-56
0
0
0
0
1.4012984643248e-46
5.813635661027e-07
1.5217275557129e-05
0.00021641082816193
0.0023795118233275
0.021758435668235
0.18369556165206
0.72786596880011
0.97029629373844
0.99401774899043
0.99776308497362
0.99875594890599
0.99903342103922
0.99908106600514
0.99799138519456
0.97348757405941
0.65004488440194
0.11788213690274
0.0068887085558363
0.0010525513533481
0.00024115006711077
4.9635358106368e-05
1.0205932510223e-05
2.0965405951985e-06
4.3076118180833e-07
8.8674711119939e-08
1.8420160899723e-08
3.972341827943e-09
9.5422265646736e-10
3.103341789722e-10
1.1564228524805e-10
3.5388019985868e-11
8.5741288265897e-12
1.9540196542642e-12
4.4243570183495e-13
9.9715503591999e-14
2.2281081831694e-14
4.9345795299877e-15
1.0842603045482e-15
2.3656759739227e-16
5.1284966466572e-17
1.1052663124888e-17
2.3691149752829e-18
5.0527056522421e-19
1.0725960723678e-19
2.2670494018374e-20
4.772234518896e-21
1.0007586612929e-21
2.0911423167357e-22
4.3548669343079e-23
9.0403537044869e-24
1.8710704180406e-24
3.8615138412942e-25
7.9478700185589e-26
1.6316520456824e-26
3.3414998631916e-27
6.8271889036767e-28
1.3917936190021e-28
2.8312801645666e-29
5.747852826627e-30
1.1646093342336e-30
2.355273560979e-31
4.7546804733004e-32
9.5818775805416e-33
1.9277813277978e-33
3.8723059766862e-34
7.766254664142e-35
1.5552762339131e-35
3.110140075409e-36
6.2108379986134e-37
1.2386211429549e-37
2.4669704971078e-38
4.9073243708495e-39
9.7498553097725e-40
1.9348200260487e-40
3.8351961799144e-41
7.59371107876e-42
1.501945601807e-42
2.9675736787791e-43
5.8574542367009e-44
1.1550179305886e-44
2.275373939673e-45
4.4782915173368e-46
8.8059920456481e-47
1.7300590744065e-47
3.396019982104e-48
6.6606366773234e-49
1.3052888226458e-49
2.5559459481709e-50
5.001028715446e-51
9.7777243357109e-52
1.9102743072155e-52
3.7291310877421e-53
7.2953263647462e-54
1.3329224605515e-54
4.1132358676964e-55
0
0
0
0
0
4.9636228947338e-07
1.3496028258697e-05
0.000201249675388
0.0023225944885842
0.025009460481139
0.28569712085658
0.8478342819368
0.98797356254308
0.99737257336762
0.99881167059917
0.99903057557656
0.99909047243148
0.99909925082835
0.99821871435101
0.98547468864596
0.83328108931883
0.24810754899577
0.018012975831059
0.0019681426247822
0.00043755507081879
9.5660231989896e-05
1.9881590796951e-05
4.1630667451269e-06
8.7555231524362e-07
1.8391388963784e-07
3.8817437633182e-08
8.3873857218243e-09
1.99039965837e-09
6.407528190377e-10
2.5375524791572e-10
8.4991608615091e-11
2.2382520249588e-11
5.3670709541467e-12
1.2604492141234e-12
2.9326712684887e-13
6.7511220461614e-14
1.5375299950194e-14
3.4679709763869e-15
7.7551137053277e-16
1.7207623482928e-16
3.7911420901897e-17
8.2983338267e-18
1.8055350130909e-18
3.9067013994043e-19
8.409612442e-20
1.8015904805517e-20
3.8422624333935e-21
8.1600224704975e-22
1.7261540790992e-22
3.6379077835088e-23
7.6400936256078e-24
1.5992026690228e-24
3.3368915529861e-25
6.9419926019208e-26
1.4401039448555e-26
2.9794109299284e-27
6.1482094688503e-28
1.2656086036723e-28
2.5991416051477e-29
5.3257922858206e-30
1.0889384319215e-30
2.221905715179e-31
4.5246716157672e-32
9.1964740834486e-33
1.8657787762299e-33
3.7786202197935e-34
7.639566206387e-35
1.5420305647171e-35
3.10764279029e-36
6.2532626627057e-37
1.2564409928922e-37
2.5209172026931e-38
5.0509869764795e-39
1.0106812524501e-39
2.0197175262254e-40
4.0310929260615e-41
8.0357645284296e-42
1.5999982454368e-42
3.1821063923315e-43
6.3216008022606e-44
1.2544988905381e-44
2.4868947269569e-45
4.9249398187575e-46
9.7434515908494e-47
1.9257707422513e-47
3.802657276179e-48
7.5018985918085e-49
1.4786545677906e-49
2.9119474909599e-50
5.7296880972063e-51
1.1264670614606e-51
2.2127337040209e-52
4.3541497660217e-53
8.0361049658552e-54
2.4646541794285e-54
0
0
0
0
0
2.5893043905794e-07
7.8629636888256e-06
0.000128324500815
0.0016047773563994
0.019784040480043
0.2526546714745
0.83046317279723
0.98838771081146
0.99803957650073
0.99891151754893
0.99909124387011
0.99910053805409
0.9990975331304
0.99753188056493
0.98205807499661
0.82140301077805
0.24487025781823
0.020497828280359
0.0026830212014777
0.00067504956785573
0.00016271092100599
3.5006821032186e-05
7.2731726586867e-06
1.5006117212138e-06
3.0944961858835e-07
6.3989082733733e-08
1.3549444351394e-08
3.2280506288818e-09
1.0586927129748e-09
4.2151567359713e-10
1.4779911551985e-10
4.1972288522089e-11
1.063175932343e-11
2.5996705838327e-12
6.2616905519887e-13
1.4886193947623e-13
3.4946778141661e-14
8.1112949170908e-15
1.8636344021619e-15
4.2427816841739e-16
9.5789643911015e-17
2.1462047510935e-17
4.7750119937138e-18
1.055506972843e-18
2.3191888461389e-19
5.0673548292828e-20
1.1014347897237e-20
2.3823949106413e-21
5.1295226608999e-22
1.0996807751165e-22
2.3479570533512e-23
4.9939631248944e-24
1.0583312615252e-24
2.2351210998069e-25
4.704994034809e-26
9.8733665114372e-27
2.0657793458606e-27
4.3099745453951e-28
8.9679451810349e-29
1.8611876943127e-29
3.8531368053695e-30
7.9581219601707e-31
1.6399124010777e-31
3.3719720476673e-32
6.918906861326e-33
1.4168241111123e-33
2.8956897426393e-34
5.9071306214967e-35
1.202869939956e-35
2.4451517304118e-36
4.9620828557765e-37
1.0053514364689e-37
2.0337185363647e-38
4.107759572364e-39
8.2847894470324e-40
1.668553961605e-40
3.3558336600721e-41
6.7403142967832e-42
1.3520624183507e-42
2.7087363295394e-43
5.4200825805959e-44
1.0832515957788e-44
2.1624768156409e-45
4.3120727319117e-46
8.5890753534059e-47
1.7090121040603e-47
3.396991086803e-48
6.7453716125267e-49
1.3381067302125e-49
2.6519161207063e-50
5.2507800505713e-51
1.0386480779668e-51
2.0575692445686e-52
3.8367687530174e-53
1.1718688648024e-53
0
0
0
1.825151830473e-36
5.0193084532995e-32
4.0086354626415e-08
1.7178422503115e-06
3.7850169451827e-05
0.00059130209403421
0.0080053830489545
0.11810987728344
0.68846875470153
0.97541181029194
0.99727994214887
0.99882839211656
0.99906455373358
0.99909047243148
0.99862439446431
0.99388551471999
0.96102110540966
0.71032158359273
0.17265672430951
0.016924455897429
0.0030897059917448
0.00078321594066572
0.00018382798813686
4.0440584135413e-05
8.8556022906689e-06
1.9455082200386e-06
4.2500575063314e-07
9.2458798391378e-08
2.033644465344e-08
4.8580163895872e-09
1.4972153646882e-09
5.7430879111464e-10
2.0636570725812e-10
6.1800938791644e-11
1.6411931600773e-11
4.1695384718274e-12
1.0384179476335e-12
2.5462385922488e-13
6.1549746835088e-14
1.468922792996e-14
3.4659293160278e-15
8.0942948191336e-16
1.8727362182363e-16
4.2958844551946e-17
9.7769646702539e-18
2.2089750860677e-18
4.9572408734648e-19
1.1054848670068e-19
2.4508075897412e-20
5.4034506525184e-21
1.1851814955095e-21
2.5869180457118e-22
5.6206307253352e-23
1.2159112893573e-23
2.6195928746657e-24
5.6217721058544e-25
1.2020024663089e-25
2.5609952553735e-26
5.4382128987926e-27
1.1511054154307e-27
2.4291152749423e-28
5.1110914447037e-29
1.0724230165918e-29
2.2441735519254e-30
4.6841654776309e-31
9.7529985186241e-32
2.0258914376039e-32
4.1986116123727e-33
8.6824821764259e-34
1.7917020170379e-34
3.6898134578082e-35
7.5838726850535e-36
1.5558052118611e-36
3.185847528705e-37
6.5121874262079e-38
1.3288811739329e-38
2.7072397372693e-39
5.5064458897537e-40
1.1182574869536e-40
2.2675595003895e-41
4.5913637970358e-42
9.2834553321567e-43
1.8744785756227e-43
3.7798219751266e-44
7.6119977354931e-45
1.5310102374536e-45
3.0755636040247e-46
6.1709625646776e-47
1.2367345858249e-47
2.475761189062e-48
4.9506516639641e-49
9.888936222314e-50
1.9732526421902e-50
3.9332336056491e-51
7.8495160927262e-52
1.4790634721929e-52
4.5094831862119e-53
0
0
0
2.3737270965589e-36
1.9243512865527e-32
3.955888207445e-10
4.8789307067766e-08
1.9335022074147e-06
4.5335042069385e-05
0.00095544955783172
0.018572378628479
0.2526533342803
0.83483211420062
0.98918488965152
0.99758943337271
0.99877105874982
0.99814183230276
0.99420335545604
0.97291295294349
0.84886260225371
0.3727827710303
0.063413136081352
0.011384680351898
0.0028671018444026
0.00073186335068525
0.00017490656745371
4.0387715228797e-05
9.1808868620118e-06
2.0567467258791e-06
4.5640606376758e-07
1.0064415973942e-07
2.2441400376052e-08
5.4597696240936e-09
1.6877669131974e-09
6.4457175109397e-10
2.3436226447134e-10
7.2368307723858e-11
1.9985596559717e-11
5.275624014988e-12
1.3615631550322e-12
3.4517953316849e-13
8.6102220183589e-14
2.1167270315101e-14
5.136185172259e-15
1.2316959746761e-15
2.9224243589479e-16
6.867352863269e-17
1.5995165094822e-17
3.6952427311761e-18
8.4727267062823e-19
1.92914604244e-19
4.3638864878745e-20
9.8113634462132e-21
2.1932861216289e-21
4.8765944424509e-22
1.0787621649464e-22
2.3748904590921e-23
5.2045216394212e-24
1.1356345006769e-24
2.4678002308566e-25
5.3417223242926e-26
1.1519471106978e-26
2.475358232984e-27
5.3011129146904e-28
1.1315769044344e-28
2.4079605852098e-29
5.108804955886e-30
1.080803581936e-30
2.2802441548856e-31
4.7981042658359e-32
1.0070606799554e-32
2.1085337907123e-33
4.4043666088428e-34
9.1791225241402e-35
1.9088355599221e-35
3.9611244699408e-36
8.2031817972254e-37
1.6954684150627e-37
3.4975887297656e-38
7.2018853329399e-39
1.4802925035811e-39
3.0373650155966e-40
6.2218227499661e-41
1.2724229904713e-41
2.5981225057464e-42
5.2969035408792e-43
1.0782960557863e-43
2.1919257506057e-44
4.4494169140308e-45
9.019586628402e-46
1.8259654953679e-46
3.6917847160668e-47
7.4547465123287e-48
1.5034755084146e-48
3.0285899683346e-49
6.0936702981414e-50
1.2246243219407e-50
2.4634414230332e-51
4.6907204395527e-52
1.4308100344571e-52
0
0
0
1.171382672122e-36
8.970624556357e-33
-3.5996952784518e-14
4.1217559681709e-10
2.0985539062426e-08
7.1224963123011e-07
1.9336863188877e-05
0.00066869612656613
0.024655814921515
0.24700748071221
0.80319181170064
0.98430587909642
0.99384329577617
0.98833814402662
0.96246698701658
0.83859515636154
0.40330634385589
0.081954388390166
0.01962423077743
0.0063218833293606
0.0018606198021864
0.00049282683346138
0.0001253846250887
3.1182212621645e-05
7.5476209306055e-06
1.7887915793932e-06
4.1698113306453e-07
9.6214438480314e-08
2.2387628076651e-08
5.6203802326907e-09
1.7467577101804e-09
6.5455294839784e-10
2.3391958548219e-10
7.2158851711519e-11
2.0177494363951e-11
5.4328827083582e-12
1.4358960912269e-12
3.7388254508455e-13
9.6010341717978e-14
2.4337336471755e-14
6.0928852614738e-15
1.5053587273538e-15
3.6742139647119e-16
8.8699466276298e-17
2.1198445173759e-17
5.0193052151974e-18
1.1781657258526e-18
2.7432318243169e-19
6.3401081441945e-20
1.4551715598109e-20
3.3183205067847e-21
7.5214132443003e-22
1.6951911752896e-22
3.8002652070737e-23
8.4764551307445e-24
1.8816459557301e-24
4.1580689973308e-25
9.1489730066473e-26
2.0047895767305e-26
4.3758495139675e-27
9.5154477103838e-28
2.0617681198206e-28
4.4520518521638e-29
9.5819135653484e-30
2.0557656681719e-30
4.3972224657692e-31
9.3781611955017e-32
1.9945249287297e-32
4.2304752030731e-33
8.9497225913284e-34
1.8886054560584e-34
3.9757814161557e-35
8.3500615324211e-36
1.749754893669e-36
3.6586243983333e-37
7.6338317001497e-38
1.5895750171926e-38
3.3034009224771e-39
6.8518861021699e-40
1.418577627637e-40
2.9316664176314e-41
6.0480827155343e-42
1.2456178652337e-42
2.5611623419048e-43
5.2576887890124e-44
1.0776496289395e-44
2.2054837567133e-45
4.5070417016524e-46
9.1972470801077e-47
1.8742138257929e-47
3.814092451035e-48
7.7515624222273e-49
1.5733607746643e-49
3.1893526772866e-50
6.4697776670415e-51
1.2449148958794e-51
3.8066399167389e-52
0
0
0
3.8285204787706e-39
7.2674233888661e-37
-3.5824775716065e-15
6.4769442281458e-11
2.6703200587159e-09
6.2292869110259e-08
1.0555739573298e-06
2.2912475117757e-05
0.00058125762182831
0.017978769948107
0.15943375089463
0.57121017213148
0.84301866442471
0.83114040399712
0.68603620016307
0.32947096240825
0.076136068636176
0.018586913848367
0.0067136797068342
0.0025164972547977
0.00082235248863576
0.00023986112056014
6.5975200663187e-05
1.7632728202732e-05
4.6088229345937e-06
1.1773223556288e-06
2.945505984859e-07
7.271836864902e-08
1.8113336729635e-08
4.8885901901419e-09
1.6185858279498e-09
6.119194251833e-10
2.1554788723324e-10
6.6588937654867e-11
1.8960494795922e-11
5.1941429717311e-12
1.3909014719902e-12
3.6594199738232e-13
9.4816246142527e-14
2.4233154638525e-14
6.1206271451572e-15
1.5334936860986e-15
3.8124021806472e-16
9.3994327321221e-17
2.2985109253203e-17
5.5760829553604e-18
1.3424296186962e-18
3.2077068512394e-19
7.5943765733964e-20
1.7834104373799e-20
4.1583156564597e-21
9.6277257817684e-22
2.2144549606348e-22
5.0624849282456e-23
1.1506886941012e-23
2.6012986096718e-24
5.8506241089025e-25
1.3095183366169e-25
2.9176092128194e-26
6.4722786040029e-27
1.4298513086223e-27
3.146380347327e-28
6.8975456729724e-29
1.5066431478893e-29
3.2796286981366e-30
7.1153744484002e-31
1.538813611563e-31
3.3177377217712e-32
7.1320599247577e-33
1.5288034135021e-33
3.2681049719973e-34
6.9677033613062e-35
1.4817402398189e-35
3.143262703808e-36
6.6519814028727e-37
1.4044842372651e-37
2.9587643922758e-38
6.2195970644789e-39
1.3046730366508e-39
2.7312193349615e-40
5.7062863327602e-41
1.1899208668713e-41
2.4767060315208e-42
5.1457178489324e-43
1.0672222671848e-43
2.209645098768e-44
4.5674032473818e-45
9.4257295799531e-46
1.9421295419697e-46
3.9955545966241e-47
8.2078411862628e-48
1.6836448189584e-48
3.4487217421714e-49
7.0542175337647e-50
1.4436338591984e-50
2.8070945093197e-51
8.6192055292392e-52
0
0
0
-8.8512532093152e-40
2.5423737918386e-35
-3.3509612786736e-16
7.1192124959872e-12
2.5963445470263e-10
6.3823260984807e-09
1.2770891649509e-07
2.45358258696e-06
3.6694115074662e-05
0.00042322008309447
0.0070726604738389
0.072106258163386
0.2007748956925
0.21331396723027
0.15487573067717
0.065389103053168
0.0209244599268
0.0065102048031918
0.002169927679186
0.00077912113394611
0.00027719778200503
9.1188974507586e-05
2.7613205360073e-05
7.9247890673958e-06
2.204568166048e-06
5.9917826141801e-07
1.5961726546792e-07
4.2085324560126e-08
1.1384458364317e-08
3.467568251848e-09
1.267791634369e-09
4.8429499602293e-10
1.674322437771e-10
5.197044486433e-11
1.5182870113926e-11
4.2895613134683e-12
1.1832238486224e-12
3.1990504439202e-13
8.4998862986653e-14
2.2240790643226e-14
5.7394917054779e-15