/*--------------------------------*- C++ -*----------------------------------*\
  =========                 |
  \\      /  F ield         | OpenFOAM: The Open Source CFD Toolbox
   \\    /   O peration     | Website:  https://openfoam.org
    \\  /    A nd           | Version:  7
     \\/     M anipulation  |
\*---------------------------------------------------------------------------*/
FoamFile
{
    version     2.0;
    format      ascii;
    class       surfaceScalarField;
    location    "0.3";
    object      alphaPhi0.water;
}
// * * * * * * * * * * * * * * * * * * * * * * * * * * * * * * * * * * * * * //

dimensions      [0 3 -1 0 0 0 0];

internalField   nonuniform List<scalar> 
11840
(
0
0
0
0
0
0
0
0
0
0
0
0
0
0
0
0
0
0
0
0
0
0
0
0
0
0
0
0
0
0
0
0
0
0
0
0
0
0
0
0
0
0
0
0
0
0
0
0
0
0
0
0
0
0
0
0
0
0
0
0
0
0
0
0
0
0
0
0
0
0
0
0
0
0
0
0
0
0
0
0
0
0
0
0
0
0
0
0
0
0
0
0
0
0
0
0
0
0
0
0
0
0
0
0
0
0
0
0
0
0
0
0
0
0
0
0
0
0
0
0
0
0
0
0
0
0
0
0
0
0
0
0
0
0
0
0
0
0
0
0
0
0
0
0
0
0
0
0
0
0
0
0
0
0
0
0
0
0
0
0
0
0
0
0
0
0
0
0
0
0
0
0
0
0
0
0
0
0
0
0
0
0
0
0
0
0
0
0
0
0
0
0
0
0
0
0
0
0
0
0
0
0
0
0
0
0
0
0
0
0
0
0
0
0
0
0
0
0
0
0
0
0
0
0
0
0
0
0
0
0
0
0
0
0
0
0
0
0
0
0
0
0
0
0
0
0
0
0
0
0
0
0
0
0
0
0
0
0
0
0
0
0
0
0
0
0
0
0
0
0
0
0
0
0
0
0
0
0
0
0
0
0
0
0
0
0
0
0
0
0
0
0
0
0
0
0
0
0
0
0
0
0
0
0
0
0
0
0
0
0
0
0
0
0
0
0
0
0
0
0
0
0
0
0
0
0
0
0
0
0
0
0
0
0
0
0
0
0
0
0
0
0
0
0
0
0
0
0
0
0
0
0
0
0
0
0
0
0
0
0
0
0
0
0
0
0
0
0
0
0
0
0
0
0
0
0
0
0
0
0
0
0
0
0
0
0
0
0
0
0
0
0
0
0
0
0
0
0
0
0
0
0
0
0
0
0
0
0
0
0
0
0
0
0
0
0
0
0
0
0
0
0
0
0
0
0
0
0
0
0
0
0
0
0
0
0
0
0
0
0
0
0
0
0
0
0
0
0
0
0
0
0
0
0
0
0
0
0
0
0
0
0
0
0
0
0
0
0
0
0
0
0
0
0
0
0
0
0
0
0
0
0
0
0
0
0
0
0
0
0
0
0
0
0
0
0
0
0
0
0
0
0
0
0
0
0
0
0
0
0
0
0
0
0
0
0
0
0
0
0
0
0
0
0
0
0
0
0
0
0
0
0
0
0
0
0
0
0
0
0
0
0
0
0
0
0
0
0
0
0
0
0
0
0
0
0
0
0
0
0
0
0
0
0
0
0
0
0
0
0
0
0
0
0
0
0
0
0
0
0
0
0
0
0
0
0
0
0
0
0
0
0
0
0
0
0
0
0
0
0
0
0
0
0
0
0
0
0
0
0
0
0
0
0
0
0
0
0
0
0
0
0
0
0
0
0
0
0
0
0
0
2.3168576614271e-38
2.0368541554549e-38
6.2895861829915e-38
8.1101774218663e-38
8.003650914578e-38
9.2812717660973e-38
3.4933188549745e-38
7.3457958757127e-38
5.7544038606093e-39
1.6347484578362e-38
7.0926567524354e-40
2.7308333876151e-39
1.5306692570223e-40
4.4807121276726e-40
3.9397105518893e-41
1.0197129413606e-40
8.9341192288418e-42
2.477449177715e-41
1.6808672000185e-42
6.8163403517652e-42
3.1912615507909e-43
1.2997217161024e-42
5.8854565051203e-44
2.4829944870717e-43
9.2005047480057e-45
4.7409698039149e-44
2.3661886136453e-45
5.767260495026e-45
4.3385912177392e-46
1.8324039211229e-45
6.7272204086204e-47
3.4973578184223e-46
1.6757333379525e-47
4.2338512912178e-47
2.5664560383842e-48
1.3449263039224e-47
6.6141720725921e-49
1.6015161292876e-48
1.2125292171763e-49
5.1097745660587e-49
1.9013348496993e-50
9.734269417804e-50
4.546577451238e-51
1.3580760768448e-50
8.3090058694333e-52
3.5309428167873e-51
1.3057110104138e-52
6.7589301886695e-52
2.7082842218113e-53
8.0219693593942e-53
6.1567878143739e-54
1.6937289828125e-53
1.1520153921286e-54
4.9207764262118e-54
2.2218691531391e-55
8.8868053633428e-55
3.3811473181564e-56
1.7931421960005e-55
7.4096867201292e-57
2.078167787553e-56
1.3594295364982e-57
6.2152420200873e-57
2.8352770915058e-58
8.345389774817e-58
5.5346252597291e-59
1.6970191035538e-58
9.920574940464e-60
3.1863918827829e-59
2.4214710130124e-60
6.6173515494722e-60
3.6169439205011e-61
1.9373136986533e-60
9.3625926888151e-62
2.2140488948106e-61
1.7024731657392e-62
7.1554652833048e-62
2.5379407248844e-63
1.3595068048884e-62
6.3328353780306e-64
1.5591304212388e-63
9.3721554797118e-65
5.0352945191483e-64
2.3386787484343e-65
5.7519420282421e-65
3.4145528137931e-66
1.8601946477145e-65
6.5528270773739e-67
2.5168596830699e-66
1.6358445170923e-67
4.0130235747733e-67
2.4006721386137e-68
1.2989833624309e-67
6.2471227734434e-69
1.4626633017812e-68
1.131589025802e-69
4.7552658952503e-69
1.6678269233002e-70
9.0022686391788e-70
4.166529903912e-71
1.0182379902313e-70
6.097046166446e-72
3.3020190589608e-71
1.5362412955563e-72
3.718430162317e-72
2.3310072471454e-73
1.2077920123176e-72
4.273841340507e-74
1.7340732532985e-73
8.7321984243607e-75
2.6526027721708e-74
1.6005171816121e-75
6.0318743241405e-75
4.123822107612e-76
9.600645810842e-76
7.4434772644843e-77
3.1227321585754e-76
1.0814127531044e-77
5.8987948774022e-77
2.8292118843669e-78
6.5381425532282e-78
5.1800861447999e-79
2.1328097555551e-78
9.8763201344049e-80
3.9783354578048e-79
1.7908403600723e-80
7.4950278867863e-80
2.6103231983793e-81
1.4164564209013e-80
5.238376317653e-82
1.7023997064162e-81
1.047108893959e-82
3.1605424373433e-82
2.0511671963162e-83
6.2372084622187e-83
3.9492288417275e-84
1.2237610201093e-83
9.9159836223491e-85
2.3073959781114e-84
1.7847432608941e-85
7.4505466980451e-85
2.5828589957974e-86
1.4050408521252e-85
5.1522923686727e-87
1.5963418154811e-86
1.2499137460469e-87
3.0260812490808e-87
1.7819906389545e-88
9.8040669707663e-88
3.5275141001631e-89
1.1616619440183e-88
6.984929978391e-90
2.1284410423235e-89
1.3557147185452e-90
4.1583009988497e-90
2.6221688840227e-91
8.0724487246662e-91
5.0199585700934e-92
1.563530486492e-91
9.1344869032906e-93
3.6056579866412e-92
1.8179460622751e-93
5.5984030591486e-93
3.9673187054967e-94
1.0728292523297e-93
2.7753511120003e-94
0
0
0
0
0
0
0
0
0
0
0
0
0
0
0
0
0
0
2.9253518554174e-31
0
5.3188215761034e-32
2.3934696978071e-31
9.6705846918151e-33
4.3517631069219e-32
3.0981830648369e-32
0
5.6330601179138e-33
2.5348770530455e-32
1.0241927487125e-33
4.6088673692013e-33
1.8621686340243e-34
8.3797588531003e-34
3.3857611527716e-35
1.5235925187471e-34
6.6207999165489e-35
0
6.0778531210001e-36
6.0347732990693e-35
2.2852189467195e-36
3.9954002569185e-36
4.901412116104e-37
1.9474357823262e-36
2.0634241786426e-37
3.3079796786675e-37
2.6925468430126e-37
6.9043005688175e-39
5.2780908797621e-38
2.2948398109924e-37
1.1019458296532e-38
4.1821611234658e-38
3.4151742525649e-39
8.7608426952637e-39
6.2410765439632e-40
2.7955600435506e-39
1.1406362982376e-40
5.1090556536399e-40
2.085143168512e-41
9.3376538746111e-41
3.2269589676099e-42
1.7655820670468e-41
2.347901052924e-42
0
4.2772051610783e-43
1.9213627981197e-42
6.0250812760948e-44
3.6769709911234e-43
3.7857614979086e-44
0
6.7224108211998e-45
3.1143718255733e-44
8.9734549847065e-46
0
8.9736271936806e-46
0
3.5592656302533e-47
8.6183080824932e-46
3.1978281448149e-47
0
5.8157915739299e-48
2.6164682445416e-47
5.2919769471154e-49
5.2870329440955e-48
1.5979675713162e-49
6.0827604437475e-49
4.9184324812206e-50
1.1061934404827e-49
1.5606104759008e-51
4.7626828862255e-50
1.664976295054e-51
0
1.552449118962e-52
1.5098440442045e-51
8.8869322062247e-54
1.4636279829321e-52
8.8824810425979e-54
0
5.7346086512006e-55
0
5.6532438551847e-55
0
1.1760357043963e-55
4.4772530290762e-55
3.6191715416318e-56
8.1413499744752e-56
5.5623162513308e-57
3.0636710409138e-56
6.2195764589446e-58
0
6.2169496434238e-58
0
7.6782769230643e-59
5.4491898910179e-58
3.603942579053e-59
0
4.3832770660051e-60
3.165639205651e-59
2.0917773552892e-60
0
4.3415971009903e-62
2.0483701356455e-60
4.337952295444e-62
0
1.9264650397824e-62
0
2.3180226019882e-63
1.694668717881e-62
1.0079038878652e-63
0
1.8325719418484e-64
8.2464881265554e-64
2.1919380778064e-65
1.6133821642148e-64
9.3547958844933e-66
0
1.1097099563952e-66
8.2451001778846e-66
4.8997168496194e-67
0
1.0992124858066e-68
4.7898006644563e-67
1.0981978278788e-68
0
5.9395025903818e-70
0
5.9330856911105e-70
0
2.5268764412317e-70
0
4.3240772394851e-71
2.0944699210058e-70
5.5230667983563e-72
3.7717728425024e-71
4.3607503335663e-73
0
4.3575451576418e-73
0
1.4417771253514e-74
4.2133689622971e-73
1.4407177360042e-74
0
4.5232518797343e-76
1.3954857403258e-74
3.4601785861806e-76
0
1.8399866151096e-77
0
5.4577345234715e-78
0
3.8002238069267e-78
0
2.8440541882786e-79
0
2.8418342080013e-79
0
4.9651489772434e-81
2.7921831505228e-79
2.6500566610084e-81
0
1.8868793898123e-81
0
5.9086676942489e-83
1.8277929878357e-81
4.4223314881333e-83
0
2.1803527744257e-84
0
6.4419958941356e-85
0
4.4617902471013e-85
0
2.1745455649378e-86
0
2.171909357877e-86
0
9.9043813594926e-88
0
4.0658317371961e-88
0
0
0
0
0
0
0
0
0
0
0
0
0
0
0
0
8.8816021478142e-11
5.070382869145e-11
1.3653479917673e-09
8.555523938619e-10
1.1395702176727e-08
7.2412850510753e-09
7.9687753509332e-08
5.1362022921455e-08
4.7485781760176e-07
3.4442576544242e-07
1.6547163304188e-06
1.5637098631717e-06
2.2870301103701e-06
3.2129427277606e-06
2.2622474273367e-06
3.4275413591229e-06
1.6956430582369e-06
2.9312008084587e-06
8.3794816631531e-07
1.8460657217281e-06
1.9370299029532e-07
6.7226166560107e-07
2.2045030670877e-08
1.2062196987454e-07
3.5882333950316e-09
1.6727761025793e-08
6.5218378640099e-10
2.9360716716871e-09
1.1862252472e-10
5.335651361943e-10
2.153832181533e-11
9.7084789581901e-11
3.8846114303827e-12
1.7653710384947e-11
6.884992280811e-13
3.196113532175e-12
1.2578312724696e-13
5.6283683224301e-13
3.0009083385998e-14
9.6774454804979e-14
1.0281275963296e-14
2.0890523621263e-14
3.6031307036735e-15
6.820170337412e-15
9.394949816839e-16
2.1027661109001e-15
1.9823228233528e-16
5.1610999259409e-16
4.1274574729153e-17
1.1312086442423e-16
8.9185099683634e-18
2.4534186783227e-17
1.9455667289354e-18
5.3539898500466e-18
4.2025943146632e-19
1.1636277978936e-18
8.9742868365896e-20
2.5050934794269e-19
1.9004776961765e-20
5.3437787185793e-20
3.9986817412195e-21
1.1312858244874e-20
8.3650336982242e-22
2.3793928133198e-21
1.7406396041183e-22
4.9753475568476e-22
3.6044068283117e-23
1.0348464425647e-22
7.4305907251487e-24
2.1420399078941e-23
1.5255790261454e-24
4.4142488198483e-24
3.1203560224378e-25
9.0597986560694e-25
6.359915939473e-26
1.8524562259461e-25
1.292059546588e-26
3.7745398056e-26
2.6169306354921e-27
7.6660583859834e-27
5.2852452141703e-28
1.5522662244322e-27
1.0645781284571e-28
3.1342263973631e-28
2.1389383624299e-29
6.3116113985768e-29
4.2873584725891e-30
1.2678393669685e-29
8.5745035739274e-31
2.5407639407882e-30
1.7112275978151e-31
5.080388916494e-31
3.408268159607e-32
1.0137100000087e-31
6.7753332680216e-33
2.0186539926831e-32
1.3444318290929e-33
4.012221041365e-33
2.6631482957344e-34
7.9601756045246e-34
5.2666544377999e-35
1.5765663386308e-34
1.0398942875185e-35
3.1173667109387e-35
2.0501621165959e-36
6.1543382001957e-36
4.0360782688678e-37
1.213171507402e-36
7.9346760160941e-38
2.3880200563867e-37
1.5578343151231e-38
4.6941221086635e-38
3.0546289125018e-39
9.2150033604315e-39
5.9822154920236e-40
1.806690897344e-39
1.1701783216017e-40
3.5378597462329e-40
2.2863739501198e-41
6.9196741842073e-41
4.4623685428411e-42
1.3518785348072e-41
8.7000811327243e-43
2.638240173556e-42
1.6944809109314e-43
5.1431863881067e-43
3.2970120267936e-44
1.0016297271118e-43
6.4089816075608e-45
1.9487406216985e-44
1.2446739445437e-45
3.7877984217263e-45
2.4150882416905e-46
7.3556157582873e-46
4.6820210048167e-47
1.4271290760976e-46
9.0691834122288e-48
2.766505740679e-47
1.7552882904917e-48
5.3584041479058e-48
3.3945688558755e-49
1.0370169246017e-48
6.5597404115095e-50
2.0053635333318e-49
1.2666716859897e-50
3.8749597447517e-50
2.4441392137313e-51
7.4819975401271e-51
4.7128212677822e-52
1.4436212240345e-51
9.0810792698946e-53
2.7834468758089e-52
1.7486519956845e-53
5.3630873713158e-53
3.3650099836006e-54
1.0326591274525e-53
6.4713320369241e-55
1.9870869729852e-54
1.2437479547654e-55
3.8212180075605e-55
2.3889616423875e-56
7.3437653225916e-56
4.5859629418389e-57
1.4105045902624e-56
8.798379436559e-58
2.7075432166157e-57
1.6870641338527e-58
5.1943075627852e-58
3.2331288153251e-59
9.9594934300946e-59
6.1927346499593e-60
1.9085779028251e-59
1.1855375495822e-60
3.6555363229547e-60
2.2684372400015e-61
6.9978752217606e-61
4.3382909253163e-62
1.338938159564e-61
8.2944803262905e-63
2.5605368474649e-62
1.5751981842313e-63
4.8969309674668e-63
3.3775746192606e-64
9.2091684822255e-64
2.3280328849416e-64
0
0
0
0
0
0
0
0
0
0
0
0
1.2311101708708e-10
5.2619157635194e-11
2.9640032680339e-09
1.3999884035768e-09
3.1413813901493e-08
1.6704023825997e-08
2.0766044856262e-07
1.1987599277897e-07
1.0855085104044e-06
6.3455694924199e-07
5.3969926724681e-06
3.1743279987232e-06
2.310067105391e-05
1.6024173663491e-05
6.0585640326034e-05
6.3463263160755e-05
6.7120206207544e-05
0.00011052683241243
5.3715917043014e-05
0.0001032973937141
2.5546721785034e-05
6.2970211294501e-05
5.2599628919119e-06
1.9986577300053e-05
5.9399647424776e-07
3.2129246100405e-06
1.0081463856739e-07
4.7036423008062e-07
1.9066997584427e-08
8.5645168303133e-08
3.5587446898614e-09
1.6008662984011e-08
6.6351539673247e-10
2.986184699976e-09
1.2358958861553e-10
5.5645125336305e-10
2.2955816788777e-11
1.0362138989155e-10
4.2273777850699e-12
1.9252658943216e-11
7.696530073919e-13
3.5450780944642e-12
1.7156088853787e-13
6.3425126098407e-13
5.9160843973279e-14
1.2832361175001e-13
2.1833982776084e-14
3.9008052002893e-14
5.9500430831667e-15
1.2401756210504e-14
1.3237119451269e-15
3.2173670414941e-15
2.8477097789417e-16
7.3722767055815e-16
6.2796311546984e-17
1.6460300052479e-16
1.3941348906827e-17
3.6714316112634e-17
3.0630066851687e-18
8.1338992900856e-18
6.6476205222064e-19
1.7824521648719e-18
1.4291833493189e-19
3.865562851166e-19
3.0494251224305e-20
8.3095923026879e-20
6.463056593635e-21
1.7727400905039e-20
1.3614882731881e-21
3.7564299011758e-21
2.852237790482e-22
7.911551340951e-22
5.9452092125976e-23
1.6571132415991e-22
1.233511167266e-23
3.4535056275417e-23
2.5484355836229e-24
7.1642279381073e-24
5.2444363238333e-25
1.4799238101733e-24
1.0753303322961e-25
3.0451560923058e-25
2.1974159831111e-26
6.2431374435109e-26
4.4761794576982e-27
1.2756405337843e-26
9.0910682865587e-28
2.5982618552282e-27
1.8412520475662e-28
5.2765946316423e-28
3.7194059750469e-29
1.0686096227555e-28
7.4948077776181e-30
2.1584886930317e-29
1.5067208117156e-30
4.3492071432109e-30
3.022346055979e-31
8.7429615322842e-31
6.0498411645044e-32
1.7536733772653e-31
1.2085856548899e-32
3.5101814949866e-32
2.4098296165255e-33
7.0120703350712e-33
4.7963324393869e-34
1.3981068690032e-33
9.5297610562633e-35
2.7825971047059e-34
1.8903305059252e-35
5.5285565545527e-35
3.7437545197777e-36
1.096623942315e-35
7.403203305044e-37
2.1717958724781e-36
1.4618458549721e-37
4.2946155190424e-37
2.8825592958562e-38
8.4800884731268e-38
5.6764037211934e-39
1.6721389650759e-38
1.1163716718198e-39
3.2927878499326e-39
2.1928335513706e-40
6.4758473887532e-40
4.3021293236557e-41
1.2720133968418e-40
8.4306425065254e-42
2.4955629629635e-41
1.6502690541076e-42
4.8904133696652e-42
3.2268754464966e-43
9.5728267108154e-43
6.3031642509843e-44
1.8718405807001e-43
1.2299821581452e-44
3.6563445800599e-44
2.3978211860178e-45
7.1349300999573e-45
4.6700968634866e-46
1.3909472580225e-45
9.0873814372585e-47
2.7090886759882e-46
1.766718859182e-47
5.271570553828e-47
3.4318114563659e-48
1.0248801529768e-47
6.6606653358624e-49
1.9908284560268e-48
1.2916964119126e-49
3.8639651245333e-49
2.5030060284446e-50
7.4934456226258e-50
4.8465361116418e-51
1.4520743659079e-50
9.3773088858616e-52
2.8116715364303e-51
1.8130546982858e-52
5.4402369160173e-52
3.5029814974917e-53
1.0518582815013e-52
6.7634303299599e-54
2.0323156195484e-53
1.3049867408491e-54
3.9239869841468e-54
2.516300069161e-55
7.5713632921644e-55
4.8488982444588e-56
1.4599503027644e-55
9.3380200758093e-57
2.8133681393882e-56
1.7972320206176e-57
5.4180914514074e-57
3.4569840418498e-58
1.042806858633e-57
6.6456967189348e-59
2.0058824017261e-58
1.2768488049735e-59
3.8561784082127e-59
2.451867006021e-60
7.4090896038819e-60
4.7066053331325e-61
1.4227439433132e-60
8.9745800878833e-62
2.7319921342909e-61
1.9318750894602e-62
5.1598318245728e-62
1.3094053359116e-62
0
0
0
0
0
0
0
0
0
0
4.9538091836361e-11
1.7885639121866e-11
1.9222724764205e-09
7.302912234211e-10
3.008840881387e-08
1.2331370098349e-08
2.8500559916652e-07
1.2843275786649e-07
1.8205791204753e-06
9.1003473918433e-07
8.9205422512843e-06
4.8160791979282e-06
3.8104511523364e-05
2.1461172783267e-05
0.00015280015000549
9.143342018355e-05
0.00061215635265399
0.00042413382340494
0.0014673980410871
0.0013971654245054
0.0013442921000486
0.0016499866769717
0.00061297364114162
0.0013472590133191
0.00010602368563964
0.00048874836799905
1.2809431419353e-05
7.1965669678573e-05
2.2772472835052e-06
1.0691015867727e-05
4.3286649265851e-07
1.9511623452795e-06
8.155900480154e-08
3.6700352252559e-07
1.5361290359691e-08
6.9111087817163e-08
2.8919777893863e-09
1.3010652464462e-08
5.4411077791902e-10
2.4484193210448e-09
1.0222801529997e-10
4.6054348989085e-10
1.9130480311996e-11
8.6531982381901e-11
3.5753416600475e-12
1.6188135631634e-11
7.4015947636554e-13
2.9681938506847e-12
2.1131325737984e-13
5.7904445352322e-13
7.4737695904139e-14
1.4473613434843e-13
2.1435317403849e-14
4.3609464898401e-14
4.9835713732077e-15
1.1558633915115e-14
1.10059740686e-15
2.7258238427924e-15
2.4577588576829e-16
6.2025778036375e-16
5.5023950211345e-17
1.4002573316929e-16
1.2191531994209e-17
3.1325193381353e-17
2.6694766100549e-18
6.9288173397442e-18
5.789217326801e-19
1.5163946473178e-18
1.2455041245701e-19
3.2884248658703e-19
2.6607584270342e-20
7.0745890352578e-20
5.6480528031578e-21
1.5112574896735e-20
1.1920157633671e-21
3.2078235745162e-21
2.5025268937488e-22
6.7698476737244e-22
5.2285593812411e-23
1.421239293813e-22
1.0875747907962e-23
2.9693926792548e-23
2.2529737668162e-24
6.1765622331996e-24
4.649451086849e-25
1.2795297377679e-24
9.5611414520977e-26
2.6406234814859e-25
1.9596651207878e-26
5.4303602213808e-26
4.0041375960549e-27
1.1130585385762e-26
8.1577986446273e-28
2.2743912178471e-27
1.6574781265479e-28
4.6339533393577e-28
3.3589272363111e-29
9.4156683718713e-29
6.7903552297992e-30
1.9082291914284e-29
1.3695546934016e-30
3.8578977617859e-30
2.756211144871e-31
7.7815724648912e-31
5.5352713167955e-32
1.5661434559278e-31
1.1094356079092e-32
3.14550356579e-32
2.2194338111119e-33
6.3050216443471e-33
4.4319658894435e-34
1.2614230500379e-33
8.834852171807e-35
2.5191255612761e-34
1.758259566119e-35
5.0221327515675e-35
3.493634782338e-36
9.9955788612796e-36
6.9312385540377e-37
1.9862733053636e-36
1.373122373006e-37
3.9410260108397e-37
2.7164222545421e-38
7.808093301725e-38
5.3665853741648e-39
1.5447941360484e-38
1.0588470837865e-39
3.0521733065551e-39
2.0865237661663e-40
6.0225774349953e-40
4.1066491638513e-41
1.1868904295966e-40
8.0731729615965e-42
2.3362168084837e-41
1.5852965768265e-42
4.5931234760985e-42
3.1095869102166e-43
9.0201289830337e-43
6.0930710293138e-44
1.7694703952435e-43
1.1926851331484e-44
3.4674899123385e-44
2.3323048619685e-45
6.7880198132656e-45
4.556464740192e-46
1.3275194393981e-45
8.8933726816401e-47
2.5937122308617e-46
1.7342541870183e-47
5.0628887512981e-47
3.3789225173589e-48
9.8737620809011e-48
6.5776968232927e-49
1.9239156974363e-48
1.2794108648193e-49
3.7455830320555e-49
2.4865474047548e-50
7.2860684227301e-50
4.8288477081794e-51
1.4161766901173e-50
9.3704285525809e-52
2.7504359766808e-51
1.8169932570478e-52
5.3377060760242e-52
3.5207360796906e-53
1.0351076525829e-52
6.8172301091864e-54
2.0058687023583e-53
1.319120515633e-54
3.8843077634079e-54
2.5507649510037e-55
7.5166896332304e-55
4.9291606086969e-56
1.4536132105011e-55
9.5191660676907e-57
2.8092311479555e-56
1.8371931869934e-57
5.4256190989046e-57
3.5436200807808e-58
1.0472272068438e-57
6.8309205821844e-59
2.0200813310086e-58
1.3162633617132e-59
3.8943249789518e-59
2.5195601830748e-60
7.5068551297516e-60
5.443840918742e-61
1.423605240024e-60
3.6258120000192e-61
0
0
0
0
0
0
0
0
0
0
5.2521050112356e-10
1.6679491628197e-10
1.3565306256894e-08
4.5964945487702e-09
1.7901612235765e-07
6.530157067908e-08
1.5393046659466e-06
6.1200772112507e-07
9.8295590193768e-06
4.3073538928125e-06
4.9665546271342e-05
2.370552115673e-05
0.00021642272620907
0.00011227790345935
0.0010092264620826
0.00054212225593316
0.0033650634209819
0.0017537462783928
0.0044080803956631
0.0023733172867523
0.0041728279310928
0.0024443894924039
0.0034913204260702
0.0024238192330169
0.0016364025559122
0.0021449768942841
0.00023422465826571
0.0011377195957577
3.1489470572117e-05
0.00017104305120192
5.8421346252136e-06
2.7111035155406e-05
1.1362662549465e-06
5.0902867823606e-06
2.1830288574304e-07
9.7753824768735e-07
4.1918324463659e-08
1.8761945293203e-07
8.0416397373966e-09
3.5989973912072e-08
1.5409259675664e-09
6.8980900250606e-09
2.9482218383117e-10
1.3208655370554e-09
5.6219496774897e-11
2.5261749834071e-10
1.0682194853315e-11
4.8139422310254e-11
2.1222540039247e-12
9.0718806168043e-12
5.7024013090659e-13
1.7409177222627e-12
1.9284614897069e-13
3.9724384212987e-13
5.4130611704262e-14
1.1040825429765e-13
1.2783795914455e-14
2.8790314431859e-14
2.8835618274828e-15
6.8674286605153e-15
6.4991759346476e-16
1.5805808383344e-15
1.4608326443004e-16
3.5919143707256e-16
3.2511905978035e-17
8.0774251015047e-17
7.1577917432951e-18
1.7964935582275e-17
1.5612838944189e-18
3.9548179435966e-18
3.3785957151957e-19
8.6282264032605e-19
7.2598585395764e-20
1.8675801320064e-19
1.5500735325989e-20
4.0139100144221e-20
3.2904829135799e-21
8.5721027411308e-21
6.9481236368472e-22
1.8200880225181e-21
1.4600380336187e-22
3.8441484255777e-22
3.0543112801853e-23
8.0797585098952e-23
6.3629502198323e-24
1.6906374638562e-23
1.3204643534082e-24
3.5228955559271e-24
2.730426291676e-25
7.3126157750146e-25
5.6269174004126e-26
1.5124529721684e-25
1.1559454617739e-26
3.1176517006184e-26
2.3676223508115e-27
6.406194319864e-27
4.8358150846044e-28
1.3124440584584e-27
9.8509087965478e-29
2.6812876290749e-28
2.0016751130328e-29
5.4632990787351e-29
4.0576791967143e-30
1.1103930200371e-29
8.2069204741525e-31
2.2514624037795e-30
1.6563367592879e-31
4.5548113496469e-31
3.3360059950838e-32
9.1947778524844e-32
6.7058739526229e-33
1.8523414812837e-32
1.3454638089326e-33
3.7243492208129e-33
2.6947084075353e-34
7.4742380541274e-34
5.3877485957818e-35
1.4972890966024e-34
1.0754473553932e-35
2.9943271395062e-35
2.1433140418452e-36
5.97830629759e-36
4.2650489252561e-37
1.191710942118e-36
8.4747885979094e-38
2.3719431007464e-37
1.6816049084706e-38
4.7141486093609e-38
3.3322033945364e-39
9.3560281571955e-39
6.5943564284587e-40
1.8543479421975e-39
1.3033662585928e-40
3.6704839247685e-40
2.5729559571038e-41
7.2561722978238e-41
5.0732671277339e-42
1.4327245179936e-41
9.9919294050996e-43
2.8255716920387e-42
1.965771882619e-43
5.5661545113364e-43
3.8632614473395e-44
1.095280534233e-43
7.5844944561822e-45
2.1529391735239e-44
1.4875253438005e-45
4.2275502464032e-45
2.914608968072e-46
8.2929696450649e-46
5.7054090821135e-47
1.6252068899109e-46
1.1158239079219e-47
3.1819760697873e-47
2.180309739895e-48
6.2242447737553e-48
4.2566227614213e-49
1.2164358413401e-48
8.3032262629423e-50
2.3752828452159e-49
1.6183527363304e-50
4.6342062131227e-50
3.151762981109e-51
9.0339805747731e-51
6.1333396622132e-52
1.7596900670582e-51
1.1926479517802e-52
3.4249600584755e-52
2.3174353761606e-53
6.6610981451262e-53
4.4997782639338e-54
1.2945400502987e-53
8.7311288515134e-55
2.5140418308225e-54
1.6929840815306e-55
4.8789296683132e-55
3.2805423805891e-56
9.4619155665534e-56
6.3526604932854e-57
1.8337627597863e-56
1.229382036489e-57
3.5515982576274e-57
2.3780871586382e-58
6.8741840921993e-58
4.5699440566895e-59
1.3303094831389e-58
9.9114641366845e-60
2.5333447167189e-59
6.476197981631e-60
0
0
0
0
0
0
0
0
0
4.4734599698596e-31
2.5856081715086e-09
7.0711131586025e-10
6.0351441743685e-08
1.7596543826248e-08
7.4918874422531e-07
2.3301744655579e-07
6.3278176825679e-06
2.1521331163883e-06
4.0940331494476e-05
1.5282956778495e-05
0.00021808338807263
9.0213697135606e-05
0.0011656438174244
0.00055216977803847
0.0037437920675838
0.0018802433769643
0.0047732653387974
0.0024091653605116
0.0049123056819839
0.0024782311194083
0.0049148588427975
0.0024908222832672
0.0048794347376155
0.0024872219106089
0.0045109767791859
0.0024720942302611
0.0024590222210653
0.0023559887887872
0.00033470317424885
0.0014209433866283
4.2473478689122e-05
0.00022603330072241
8.2826218699358e-06
3.700569672114e-05
1.6771229107583e-06
7.2813378957424e-06
3.3190140986363e-07
1.4431374135219e-06
6.5536338497894e-08
2.8549254798733e-07
1.2917742774023e-08
5.6409833002347e-08
2.5425284117673e-09
1.1124763214396e-08
4.9952209678243e-10
2.1896373766865e-09
9.7848825945553e-11
4.301832773094e-10
1.9151785372107e-11
8.4181326575391e-11
3.894074819545e-12
1.6332730606651e-11
1.0782324759615e-12
3.1824434718678e-12
3.5434668148014e-13
7.3299559675897e-13
9.7759090437383e-14
1.9735748475334e-13
2.3274954073845e-14
5.0678146598824e-14
5.3194489610738e-15
1.2128973963323e-14
1.208951701522e-15
2.8127725324956e-15
2.7314617573262e-16
6.4332086074403e-16
6.1095055255975e-17
1.454991343665e-16
1.3525627369144e-17
3.2551051134981e-17
2.967706305175e-18
7.2102848488656e-18
6.4608824111723e-19
1.5831527972512e-18
1.3967695617805e-19
3.4490719045705e-19
3.0005588677511e-20
7.4616417765262e-20
6.4086344246583e-21
1.6040018628818e-20
1.3615197068738e-21
3.4281250283028e-21
2.8784531178969e-22
7.2878411302489e-22
6.0580112765257e-23
1.5417470473998e-22
1.2696284267033e-23
3.2468193298809e-23
2.6504702104717e-24
6.8088503239637e-24
5.512893539031e-25
1.4222769782601e-24
1.1427359142064e-25
2.9600562445253e-25
2.3610821697553e-26
6.1393213609755e-26
4.8635807249665e-27
1.269213845248e-26
9.9897449119743e-28
2.615918315572e-27
2.0463168030607e-28
5.3760341567047e-28
4.1809290862601e-29
1.1018319742779e-28
8.5213893839986e-30
2.2524003622081e-29
1.7327561343518e-30
4.5931327071118e-30
3.515617875989e-31
9.3445294948226e-31
7.1178242581926e-32
1.896875357937e-31
1.4381865580048e-32
3.8423539024766e-32
2.9003049318351e-33
7.7673745085032e-33
5.8380534058803e-34
1.5671394911216e-33
1.1730636119911e-34
3.1559723925112e-34
2.3530715963162e-35
6.3443057613949e-35
4.7123530462828e-36
1.2731848759181e-35
9.4222978916872e-37
2.5508470386235e-36
1.8811254778283e-37
5.1025853224436e-37
3.7501160911237e-38
1.0191420867417e-37
7.4655253427566e-39
2.0325534880804e-38
1.4841786451841e-39
4.0479469339657e-39
2.9467437775285e-40
8.0507202496305e-40
5.843164642232e-41
1.5990501897167e-40
1.1572350356969e-41
3.1720215740165e-41
2.2891799720036e-42
6.2845629157435e-42
4.5231350661599e-43
1.243644415184e-42
8.9272142867978e-44
2.4581930461467e-43
1.760045599627e-44
4.853443370097e-44
3.4663906391291e-45
9.5722274618554e-45
6.8200901575178e-46
1.8859025628174e-45
1.3405238491692e-46
3.7117794266885e-46
2.6323461527595e-47
7.2981803269521e-47
5.1642485940156e-48
1.4336026957316e-47
1.0122274786596e-48
2.813432763675e-48
1.9822873944598e-49
5.5163142068578e-49
3.8786701623927e-50
1.0806297034582e-49
7.582922308621e-51
2.1150981749547e-50
1.4812804193029e-51
4.1363733318666e-51
2.8913048696415e-52
8.0826530872153e-52
5.6391685544924e-53
1.5781279759014e-52
1.0990290181818e-53
3.0788835822722e-53
2.1403467130165e-54
6.0022688487044e-54
4.1653132980905e-55
1.1692753186614e-54
8.100414650664e-56
2.2761716411227e-55
1.5742278286726e-56
4.4277972097866e-56
3.0578329500019e-57
8.6072812723781e-57
5.9010172204357e-58
1.6728130579048e-57
1.2850829436305e-58
3.1999938916982e-58
8.2134812614679e-59
0
0
0
0
0
0
0
0
4.0667817710383e-31
4.0667819882125e-32
7.3098373698959e-09
1.4968245331026e-09
1.7695802733229e-07
3.8898752276657e-08
2.2374219740481e-06
5.3264071271021e-07
2.0139233297675e-05
5.3041106204776e-06
0.00014232379997247
4.0916386339979e-05
0.00090035976837173
0.00032180345817913
0.0035891787777662
0.0017003997400197
0.0048128323910965
0.0023845447222202
0.004946737193737
0.0024725524050029
0.0049751366414787
0.0024901738808727
0.004983100891851
0.0024947413476176
0.0049799507296713
0.0024944331174846
0.0049562222618255
0.0024931829709541
0.0047054943372263
0.0024821566399231
0.0023359901766369
0.0023578008710823
0.00026428961500442
0.0012351550795814
3.7805309799015e-05
0.0001714840605115
8.0478617419635e-06
3.0783087771575e-05
1.6313702871984e-06
6.4339626997391e-06
3.2889240749187e-07
1.3232538195701e-06
6.6656800086651e-08
2.7131802525496e-07
1.3511543586897e-08
5.5444626791694e-08
2.732860496159e-09
1.129293096755e-08
5.525005382258e-10
2.2943851652361e-09
1.1153994965876e-10
4.6484023643531e-10
2.2760232239766e-11
9.3771777719061e-11
4.975920179521e-12
1.8790327573185e-11
1.4846157316335e-12
3.8267695934097e-12
4.7764026368681e-13
9.2830682723459e-13
1.276870463718e-13
2.47957823024e-13
3.0365069688733e-14
6.267752098934e-14
7.0042449719546e-15
1.49996505707e-14
1.6045100413822e-15
3.502233954547e-15
3.6464648747798e-16
8.0704712523104e-16
8.2028386855442e-17
1.83867025156e-16
1.8274305669147e-17
4.1444145385042e-17
4.0366524175157e-18
9.2522040265901e-18
8.8493918185586e-19
2.0479025174753e-18
1.926753239072e-19
4.498158660836e-19
4.1688662370285e-20
9.8114878443406e-20
8.9683623219687e-21
2.1265476759891e-20
1.9191410137171e-21
4.5823054115079e-21
4.086675212739e-22
9.8210966891197e-22
8.6627057663974e-23
2.0944818262024e-22
1.8284831104148e-23
4.4461783932833e-23
3.8441619855632e-24
9.3978089824774e-24
8.0517980147982e-25
1.9784129446148e-24
1.6805874469471e-25
4.149221101881e-25
3.4961806899818e-26
8.6710861654908e-26
7.2505448941591e-27
1.8060361450893e-26
1.4992152543281e-27
3.7497821436444e-27
3.09129412671e-28
7.7622188361903e-28
6.3571235596742e-29
1.6022612834741e-28
1.3040106693586e-29
3.2984527486772e-29
2.668416936081e-30
6.7728840611604e-30
5.4478647620062e-31
1.3873181720556e-30
1.1097971615129e-31
2.8350862561749e-31
2.2560411668715e-32
5.7808199875385e-32
4.5769396407088e-33
1.1762174493116e-32
9.2675338525562e-34
2.3883609740333e-33
1.8730430369176e-34
4.8401973261039e-34
3.7788315737669e-35
9.7906412312451e-35
7.6106754428551e-36
1.9768614584673e-35
1.5302861927332e-36
3.9846341436212e-36
3.0720775835893e-37
8.0181850677842e-37
6.1578134374091e-38
1.6108894416202e-37
1.2324777348156e-38
3.2313390748548e-38
2.463269581361e-39
6.4721737031815e-39
4.9163865767159e-40
1.2944671347368e-39
9.7994372657078e-41
2.5853915114681e-40
1.950725111388e-41
5.1567504301007e-41
3.8783650123888e-42
1.0272105160675e-41
7.7015105175508e-43
2.0435931068553e-42
1.5275446243732e-43
4.0606748324953e-43
3.0263421308133e-44
8.0591113756079e-44
5.9891185368093e-45
1.597632277667e-44
1.1839749912285e-45
3.1636035473612e-45
2.3381384306014e-46
6.2577324492862e-46