/*--------------------------------*- C++ -*----------------------------------*\
  =========                 |
  \\      /  F ield         | OpenFOAM: The Open Source CFD Toolbox
   \\    /   O peration     | Website:  https://openfoam.org
    \\  /    A nd           | Version:  7
     \\/     M anipulation  |
\*---------------------------------------------------------------------------*/
FoamFile
{
    version     2.0;
    format      ascii;
    class       volScalarField;
    location    "0.085";
    object      T;
}
// * * * * * * * * * * * * * * * * * * * * * * * * * * * * * * * * * * * * * //

dimensions      [0 0 0 1 0 0 0];

internalField   nonuniform List<scalar> 
12225
(
1.00689
1.0041
1.00171
1.00089
1.00043
1.00012
0.999964
0.999897
0.999865
0.999843
0.999828
0.999803
0.999749
0.999612
0.99926
0.998424
0.996142
0.991134
0.995136
0.994812
0.996745
0.998334
0.999127
0.999464
0.999644
0.999763
0.999838
0.999879
0.999897
0.999895
0.999854
0.999729
0.999393
0.998592
0.99655
0.991904
0.999619
1.00005
1.00023
1.00028
1.0002
1.00008
0.999991
0.999952
0.999933
0.999917
0.9999
0.999875
0.999821
0.999693
0.999374
0.998631
0.996852
0.993107
1.00032
1.00017
0.999777
0.999749
0.999819
0.999835
0.999837
0.99985
0.999864
0.999871
0.99987
0.999858
0.999815
0.999703
0.99942
0.998767
0.997294
0.99436
1.00014
0.999947
0.999658
0.999701
0.999818
0.999857
0.999862
0.999871
0.999881
0.999886
0.999884
0.999871
0.999831
0.999729
0.99948
0.998922
0.997734
0.995497
1.00002
0.999951
0.999769
0.999773
0.999847
0.999872
0.999872
0.999877
0.999884
0.999888
0.999886
0.999874
0.999838
0.999749
0.999537
0.999077
0.998146
0.996475
0.999995
1
0.999864
0.999822
0.999858
0.999877
0.999879
0.999882
0.999888
0.999892
0.999891
0.99988
0.999849
0.999772
0.999597
0.99923
0.998516
0.997288
0.999995
1.00002
0.999917
0.999858
0.999872
0.999888
0.999889
0.999891
0.999896
0.999898
0.999897
0.999888
0.999861
0.999798
0.999657
0.99937
0.998836
0.997946
0.999995
1.00002
0.999951
0.999894
0.999893
0.999902
0.999902
0.999903
0.999905
0.999906
0.999905
0.999896
0.999874
0.999823
0.999713
0.999496
0.999104
0.998468
0.999995
1.00002
0.999976
0.999926
0.999916
0.999918
0.999916
0.999915
0.999916
0.999916
0.999914
0.999906
0.999888
0.999848
0.999764
0.999604
0.999323
0.998875
0.999996
1.00002
0.999992
0.999953
0.999938
0.999935
0.999931
0.999928
0.999927
0.999926
0.999923
0.999917
0.999902
0.999872
0.999809
0.999694
0.999496
0.999187
0.999997
1.00001
1
0.999971
0.999954
0.999949
0.999944
0.99994
0.999938
0.999936
0.999933
0.999927
0.999916
0.999892
0.999845
0.999761
0.99962
0.999402
0.999997
1.00001
1.00001
0.999984
0.999968
0.999962
0.999957
0.999952
0.999948
0.999945
0.999943
0.999938
0.999928
0.99991
0.999876
0.999816
0.999717
0.999566
0.999997
1.00001
1.00001
0.999993
0.999981
0.999974
0.999968
0.999964
0.99996
0.999957
0.999954
0.99995
0.999942
0.999929
0.999906
0.999865
0.999801
0.999704
0.999998
1.00001
1.00001
1
0.999991
0.999985
0.999981
0.999977
0.999973
0.999968
0.999965
0.999962
0.999957
0.999948
0.999932
0.999907
0.999868
0.999811
0.999998
1.00001
1.00001
1
0.999998
0.999994
0.999991
0.999988
0.999983
0.999979
0.999976
0.999974
0.999971
0.999964
0.999954
0.999939
0.999918
0.999887
0.999998
1.00001
1.00001
1.00001
1
0.999999
0.999998
0.999996
0.999992
0.999989
0.999985
0.999982
0.99998
0.999978
0.999972
0.999963
0.999952
0.999938
0.999999
1.00001
1.00001
1.00001
1
1
1
0.999998
0.999995
0.999993
0.999993
0.999992
0.999988
0.999984
0.999982
0.999979
0.999974
0.999967
1
1.00001
1.00001
1.00001
1
1
1
0.999999
0.999998
0.999996
0.999994
0.999992
0.99999
0.999988
0.999987
0.999985
0.999982
0.999978
0.999999
1.00001
1.00001
1.00001
1.00001
1
0.999998
0.999996
0.999993
0.999991
0.999989
0.999987
0.999985
0.999982
0.999981
0.999979
0.999977
0.999975
0.999997
1.00001
1.00001
1.00001
1
0.999998
0.999993
0.999988
0.999985
0.999982
0.999979
0.999976
0.999973
0.999972
0.999971
0.999969
0.999968
0.999966
0.999997
1.00001
1.00002
1.00001
0.999995
0.999988
0.999982
0.999975
0.999969
0.999965
0.999964
0.999963
0.99996
0.999959
0.999958
0.999958
0.999957
0.999955
0.999996
1.00003
1.00003
0.999996
0.999972
0.999966
0.999961
0.999956
0.999952
0.999949
0.999948
0.999947
0.999946
0.999945
0.999945
0.999944
0.999944
0.999944
0.999989
1.00005
1.00004
0.999983
0.999948
0.999938
0.999932
0.999929
0.999929
0.999931
0.999932
0.999933
0.999932
0.999933
0.999934
0.999935
0.999935
0.999936
0.99999
1.00004
0.999992
0.999937
0.999931
0.999929
0.999917
0.999909
0.999908
0.99991
0.999912
0.999915
0.999917
0.999918
0.999919
0.999921
0.999924
0.999925
1.00013
1.00009
0.999825
0.999756
0.999837
0.999896
0.999909
0.999912
0.999916
0.999918
0.99992
0.999921
0.999922
0.999922
0.999923
0.999924
0.999925
0.999926
1.0005
1.00053
0.999952
0.999665
0.999667
0.999718
0.999754
0.999789
0.99982
0.999844
0.999861
0.999875
0.999885
0.999893
0.9999
0.999905
0.999909
0.999915
1.00004
1.0008
1.00096
1.0008
1.00056
1.00034
1.00018
1.00009
1.00003
0.999996
0.99997
0.999954
0.999943
0.999935
0.99993
0.999925
0.999921
0.999921
0.994604
0.993791
0.995838
0.997661
0.998662
0.999144
0.999416
0.999594
0.99971
0.999782
0.999829
0.999863
0.999887
0.999905
0.999918
0.999928
0.999933
0.99993
1.00635
1.00419
1.00178
1.00096
1.00054
1.00023
1.00005
0.999977
0.999939
0.999915
0.9999
0.999892
0.999888
0.999886
0.999885
0.999886
0.999888
0.999899
0.739782
0.739785
0.739745
0.739688
0.739631
0.73957
0.739501
0.739427
0.739351
0.739274
0.739197
0.73912
0.739044
0.738968
0.738894
0.738822
0.738755
0.738693
0.738637
0.73859
0.738553
0.738528
0.738516
0.738519
0.738538
0.738575
0.738629
0.7387
0.738787
0.738891
0.739025
0.739217
0.739541
0.740126
0.740725
0.741149
0.741591
0.742002
0.742401
0.742797
0.743162
0.743582
0.744098
0.744589
0.745116
0.745726
0.746351
0.747003
0.74768
0.748379
0.749099
0.749837
0.750593
0.751365
0.752151
0.75295
0.753761
0.754584
0.755416
0.756256
0.757104
0.757958
0.758818
0.759682
0.760549
0.761419
0.762289
0.763161
0.764032
0.764902
0.765771
0.766637
0.7675
0.768359
0.769214
0.770064
0.770909
0.771749
0.772581
0.773408
0.774227
0.77504
0.775845
0.776642
0.777431
0.778212
0.778984
0.779748
0.780504
0.781251
0.781989
0.782719
0.783439
0.78415
0.784851
0.785541
0.78622
0.786885
0.787543
0.788195
0.788836
0.789467
0.790089
0.7907
0.791301
0.791891
0.792471
0.79304
0.793598
0.794146
0.794683
0.795209
0.795725
0.79623
0.796723
0.797206
0.797677
0.798137
0.798585
0.799022
0.799448
0.799861
0.800261
0.800648
0.801022
0.801384
0.801732
0.802068
0.802391
0.8027
0.802997
0.803281
0.803551
0.803808
0.804053
0.804283
0.8045
0.804704
0.804895
0.805071
0.805234
0.805383
0.805518
0.805637
0.80574
0.805828
0.8059
0.805955
0.805994
0.806017
0.806023
0.806011
0.805983
0.805937
0.805874
0.805793
0.805694
0.805578
0.805443
0.805289
0.805117
0.804923
0.8047
0.804436
0.804133
0.803807
0.803463
0.803103
0.802727
0.802334
0.801924
0.801497
0.801053
0.800592
0.800114
0.799615
0.799119
0.798508
0.798166
0.796531
0.740454
0.740446
0.740431
0.740402
0.740368
0.740329
0.740283
0.740229
0.740165
0.740094
0.740016
0.739934
0.739852
0.73977
0.739691
0.739616
0.739547
0.739486
0.739433
0.739392
0.739364
0.739351
0.739356
0.739384
0.739437
0.739521
0.73964
0.7398
0.740004
0.740254
0.740541
0.740848
0.741154
0.741276
0.741303
0.741503
0.741794
0.742166
0.742601
0.743072
0.743595
0.744132
0.744634
0.745193
0.745809
0.746417
0.747041
0.747687
0.748354
0.749044
0.749754
0.750484
0.751231
0.751994
0.752773
0.753564
0.754368
0.755183
0.756008
0.756841
0.757682
0.758529
0.759381
0.760238
0.761098
0.761961
0.762825
0.76369
0.764554
0.765417
0.766279
0.767138
0.767995
0.768848
0.769696
0.77054
0.771378
0.772211
0.773037
0.773857
0.77467
0.775476
0.776274
0.777065
0.777847
0.778621
0.779387
0.780144
0.780892
0.781632
0.782362
0.783084
0.783796
0.784498
0.785191
0.785876
0.786552
0.787221
0.787878
0.788524
0.789158
0.789782
0.790395
0.790998
0.791591
0.792172
0.792743
0.793303
0.793852
0.794391
0.794919
0.795436
0.795941
0.796436
0.79692
0.797392
0.797853
0.798303
0.798741
0.799167
0.799581
0.799983
0.800372
0.800748
0.80111
0.80146
0.801796
0.80212
0.80243
0.802728
0.803012
0.803283
0.80354
0.803784
0.804015
0.804232
0.804436
0.804625
0.804802
0.804964
0.805112
0.805246
0.805365
0.805469
0.805556
0.805628
0.805683
0.805722
0.805744
0.80575
0.805738
0.805708
0.805661
0.805597
0.805515
0.805414
0.805296
0.805159
0.805003
0.804829
0.804634
0.804419
0.804185
0.803935
0.803667
0.803378
0.803069
0.802742
0.802396
0.802031
0.801649
0.801248
0.800829
0.800392
0.79994
0.799468
0.798997
0.79844
0.798058
0.796872
0.741906
0.74185
0.741816
0.741783
0.741744
0.741694
0.741635
0.741567
0.74149
0.741408
0.74132
0.74123
0.741138
0.741047
0.740958
0.740874
0.740795
0.740725
0.740663
0.740614
0.740578
0.740558
0.740556
0.740574
0.740615
0.74068
0.74077
0.740885
0.741021
0.741178
0.741353
0.741551
0.741777
0.742012
0.742258
0.742541
0.742856
0.743208
0.743602
0.744038
0.74452
0.745046
0.745601
0.746181
0.746776
0.747383
0.748009
0.748654
0.749319
0.750005
0.750709
0.751431
0.752171
0.752926
0.753697
0.75448
0.755276
0.756083
0.7569
0.757726
0.758559
0.759399
0.760245
0.761095
0.761949
0.762805
0.763663
0.764522
0.765382
0.76624
0.767097
0.767952
0.768804
0.769653
0.770498
0.771339
0.772174
0.773004
0.773828
0.774645
0.775457
0.776261
0.777057
0.777847
0.778628
0.779401
0.780166
0.780923
0.781671
0.782411
0.783142
0.783864
0.784576
0.78528
0.785973
0.786657
0.787332
0.787997
0.788652
0.789297
0.789932
0.790557
0.791171
0.791775
0.792369
0.792951
0.793523
0.794085
0.794636
0.795176
0.795705
0.796223
0.79673
0.797225
0.79771
0.798184
0.798646
0.799096
0.799535
0.799961
0.800376
0.800779
0.801168
0.801544
0.801907
0.802256
0.802593
0.802916
0.803226
0.803523
0.803807
0.804077
0.804333
0.804576
0.804805
0.805021
0.805222
0.80541
0.805584
0.805744
0.805889
0.80602
0.806135
0.806235
0.806318
0.806386
0.806436
0.80647
0.806487
0.806487
0.806469
0.806434
0.806381
0.80631
0.80622
0.806113
0.805987
0.805843
0.805679
0.805497
0.805296
0.805075
0.804837
0.804587
0.804322
0.804038
0.803735
0.803412
0.803071
0.802711
0.802332
0.801934
0.801518
0.801084
0.800633
0.800162
0.799686
0.799137
0.79872
0.7978
0.744071
0.743971
0.74391
0.743862
0.743808
0.743743
0.743667
0.743582
0.74349
0.743392
0.743291
0.743186
0.743081
0.742977
0.742875
0.742777
0.742686
0.742603
0.74253
0.742468
0.74242
0.742388
0.742373
0.742377
0.742402
0.742449
0.742518
0.74261
0.742725
0.742863
0.743029
0.743223
0.743445
0.743687
0.743952
0.744248
0.744573
0.744929
0.745315
0.745733
0.746183
0.746664
0.747174
0.747714
0.748279
0.748866
0.749476
0.750107
0.750759
0.751431
0.752121
0.75283
0.753555
0.754297
0.755053
0.755823
0.756605
0.757399
0.758202
0.759015
0.759836
0.760664
0.761498
0.762337
0.76318
0.764027
0.764875
0.765725
0.766576
0.767426
0.768275
0.769123
0.769969
0.770811
0.771651
0.772486
0.773317
0.774143
0.774963
0.775778
0.776587
0.777389
0.778184
0.778972
0.779753
0.780526
0.781291
0.782049
0.782798
0.783539
0.784272
0.784996
0.785711
0.786417
0.787114
0.787802
0.78848
0.789149
0.789808
0.790458
0.791097
0.791726
0.792345
0.792954
0.793553
0.794141
0.794718
0.795285
0.795841
0.796387
0.796922
0.797445
0.797958
0.79846
0.798951
0.79943
0.799898
0.800354
0.800798
0.801231
0.801651
0.802059
0.802453
0.802835
0.803203
0.803558
0.803899
0.804227
0.804542
0.804844
0.805132
0.805406
0.805666
0.805913
0.806145
0.806364
0.806568
0.806759
0.806935
0.807097
0.807244
0.807376
0.807492
0.807592
0.807676
0.807743
0.807794
0.807827
0.807843
0.807842
0.807823
0.807785
0.80773
0.807657
0.807565
0.807455
0.807326
0.807178
0.807012
0.806826
0.806622
0.806399
0.806158
0.805902
0.805631
0.805341
0.805032
0.804704
0.804357
0.803991
0.803606
0.803203
0.802781
0.802339
0.80188
0.8014
0.800909
0.800355
0.79991
0.799113
0.746917
0.746774
0.746689
0.746629
0.746562
0.746481
0.746388
0.746286
0.746176
0.74606
0.745939
0.745816
0.745692
0.745569
0.745449
0.745333
0.745223
0.745121
0.745029
0.744949
0.744882
0.744831
0.744796
0.74478
0.744784
0.744809
0.744857
0.744929
0.745025
0.745148
0.745298
0.745476
0.74568
0.745909
0.746163
0.746447
0.746761
0.747104
0.747476
0.747878
0.748309
0.748769
0.749255
0.749769
0.75031
0.750875
0.751463
0.752073
0.752705
0.753357
0.754029
0.754718
0.755425
0.756148
0.756886
0.757637
0.758402
0.759178
0.759965
0.760761
0.761566
0.762378
0.763197
0.764022
0.764851
0.765684
0.76652
0.767358
0.768197
0.769037
0.769876
0.770714
0.771551
0.772386
0.773218
0.774047
0.774872
0.775692
0.776508
0.777318
0.778123
0.778923
0.779715
0.780502
0.781281
0.782054
0.782819
0.783576
0.784326
0.785068
0.785803
0.786529
0.787246
0.787955
0.788655
0.789346
0.790029
0.790702
0.791365
0.792019
0.792664
0.793298
0.793923
0.794538
0.795142
0.795736
0.79632
0.796893
0.797456
0.798009
0.79855
0.799081
0.799601
0.80011
0.800607
0.801093
0.801568
0.802031
0.802483
0.802922
0.803349
0.803764
0.804165
0.804553
0.804927
0.805288
0.805636
0.80597
0.80629
0.806597
0.80689
0.807169
0.807434
0.807685
0.807922
0.808144
0.808352
0.808546
0.808725
0.808889
0.809038
0.809171
0.809289
0.80939
0.809474
0.809541
0.809592
0.809624
0.809639
0.809636
0.809616
0.809576
0.809519
0.809443
0.809348
0.809235
0.809102
0.808951
0.80878
0.808591
0.808382
0.808155
0.807909
0.807647
0.807367
0.80707
0.806753
0.806418
0.806064
0.805691
0.805298
0.804887
0.804457
0.804007
0.803538
0.803047
0.802542
0.80198
0.801521
0.800764
0.750449
0.750275
0.750171
0.750099
0.750018
0.749921
0.74981
0.749689
0.749559
0.749422
0.74928
0.749135
0.748988
0.748843
0.748699
0.74856
0.748427
0.748302
0.748187
0.748084
0.747994
0.747919
0.747861
0.747822
0.747803
0.747805
0.74783
0.747879
0.747954
0.748055
0.748184
0.74834
0.748522
0.748731
0.748966
0.749231
0.749524
0.749846
0.750198
0.750578
0.750987
0.751423
0.751887
0.752378
0.752894
0.753434
0.753997
0.754583
0.75519
0.755818
0.756465
0.757131
0.757814
0.758513
0.759228
0.759957
0.760699
0.761453
0.762219
0.762994
0.763779
0.764572
0.765372
0.766178
0.76699
0.767806
0.768625
0.769448
0.770272
0.771098
0.771924
0.77275
0.773575
0.774399
0.775221
0.77604
0.776857
0.777669
0.778478
0.779282
0.780082
0.780876
0.781664
0.782447
0.783224
0.783994
0.784758
0.785514
0.786264
0.787006
0.787741
0.788468
0.789187
0.789898
0.790601
0.791295
0.79198
0.792657
0.793325
0.793983
0.794633
0.795272
0.795902
0.796523
0.797133
0.797733
0.798323
0.798903
0.799473
0.800032
0.800581
0.801119
0.801646
0.802162
0.802667
0.80316
0.803642
0.804113
0.804571
0.805018
0.805452
0.805873
0.806281
0.806676
0.807057
0.807424
0.807778
0.808118
0.808444
0.808757
0.809055
0.809339
0.809609
0.809864
0.810105
0.810331
0.810542
0.810738
0.81092
0.811086
0.811237
0.811371
0.81149
0.811591
0.811675
0.811742
0.811791
0.811822
0.811836
0.811831
0.811807
0.811765
0.811704
0.811625
0.811526
0.811408
0.811271
0.811115
0.810939
0.810744
0.810529
0.810296
0.810044
0.809774
0.809487
0.809181
0.808857
0.808513
0.808151
0.807769
0.807369
0.806949
0.806509
0.80605
0.80557
0.805067
0.804549
0.803979
0.803509
0.802751
0.754684
0.754494
0.754377
0.754291
0.754196
0.754081
0.753952
0.75381
0.753658
0.753498
0.753332
0.753162
0.75299
0.752819
0.752649
0.752484
0.752325
0.752173
0.752032
0.751902
0.751785
0.751684
0.7516
0.751535
0.751489
0.751466
0.751465
0.751489
0.751539
0.751615
0.751717
0.751847
0.752004
0.752188
0.752399
0.752639
0.752907
0.753203
0.753529
0.753883
0.754264
0.754674
0.75511
0.755571
0.756058
0.756569
0.757104
0.75766
0.758239
0.758837
0.759456
0.760092
0.760747
0.761418
0.762105
0.762807
0.763522
0.76425
0.764989
0.765739
0.766499
0.767268
0.768045
0.768828
0.769618
0.770413
0.771212
0.772015
0.772821
0.773629
0.774438
0.775248
0.776058
0.776868
0.777677
0.778484
0.779288
0.78009
0.780889
0.781684
0.782476
0.783263
0.784045
0.784822
0.785593
0.786359
0.787119
0.787873
0.78862
0.78936
0.790094
0.790821
0.79154
0.792252
0.792955
0.793651
0.794339
0.795018
0.795689
0.796351
0.797005
0.797649
0.798283
0.798908
0.799524
0.80013
0.800726
0.801312
0.801888
0.802453
0.803009
0.803553
0.804087
0.80461
0.805122
0.805623
0.806112
0.80659
0.807055
0.807509
0.80795
0.808378
0.808792
0.809193
0.809581
0.809955
0.810315
0.810661
0.810993
0.811311
0.811614
0.811903
0.812177
0.812436
0.812681
0.81291
0.813124
0.813323
0.813507
0.813675
0.813827
0.813962
0.814081
0.814182
0.814266
0.814331
0.814379
0.814408
0.814419
0.814411
0.814385
0.814339
0.814274
0.81419
0.814086
0.813963
0.81382
0.813658
0.813475
0.813274
0.813052
0.812812
0.812552
0.812275
0.811978
0.811663
0.81133
0.810977
0.810606
0.810215
0.809804
0.809375
0.808925
0.808455
0.807964
0.807449
0.806918
0.806337
0.805855
0.805078
0.759659
0.759459
0.759331
0.759232
0.75912
0.758988
0.758838
0.758674
0.758498
0.758314
0.758122
0.757925
0.757726
0.757526
0.757328
0.757133
0.756945
0.756764
0.756593
0.756434
0.756288
0.756158
0.756045
0.75595
0.755876
0.755824
0.755794
0.75579
0.75581
0.755856
0.75593
0.75603
0.756157
0.756311
0.756493
0.756703
0.756941
0.757207
0.757502
0.757824
0.758174
0.758551
0.758954
0.759383
0.759837
0.760314
0.760814
0.761337
0.761881
0.762446
0.763031
0.763634
0.764255
0.764893
0.765547
0.766217
0.7669
0.767596
0.768305
0.769025
0.769755
0.770495
0.771244
0.772
0.772763
0.773533
0.774307
0.775086
0.775869
0.776655
0.777443
0.778233
0.779025
0.779816
0.780607
0.781398
0.782188
0.782975
0.78376
0.784543
0.785323
0.786099
0.786872
0.78764
0.788403
0.789162
0.789915
0.790663
0.791405
0.792142
0.792872
0.793595
0.794312
0.795023
0.795725
0.796421
0.797109
0.797789
0.798461
0.799125
0.79978
0.800427
0.801065
0.801694
0.802313
0.802923
0.803524
0.804114
0.804695
0.805266
0.805827
0.806377
0.806917
0.807446
0.807964
0.808471
0.808967
0.809451
0.809923
0.810383
0.81083
0.811264
0.811685
0.812092
0.812485
0.812865
0.813231
0.813582
0.813919
0.814242
0.81455
0.814843
0.815121
0.815384
0.815632
0.815864
0.816081
0.816282
0.816467
0.816637
0.816789
0.816925
0.817043
0.817143
0.817226
0.81729
0.817335
0.817362
0.81737
0.817359
0.817328
0.817278
0.817208
0.817118
0.817009
0.816879
0.81673
0.816561
0.816371
0.816162
0.815933
0.815684
0.815416
0.815129
0.814823
0.814499
0.814155
0.813792
0.81341
0.813008
0.812587
0.812147
0.811686
0.811204
0.810701
0.810174
0.80963
0.809036
0.808541
0.807737
0.76541
0.765206
0.765066
0.764953
0.764824
0.764672
0.7645
0.764313
0.764113
0.763902
0.763682
0.763457
0.763228
0.762998
0.762768
0.762543
0.762322
0.76211
0.761907
0.761715
0.761537
0.761375
0.76123
0.761103
0.760997
0.760913
0.760851
0.760814
0.760801
0.760815
0.760855
0.760921
0.761014
0.761135
0.761283
0.761458
0.761662
0.761893
0.762152
0.762438
0.762751
0.763091
0.763457
0.763847
0.764263
0.764701
0.765163
0.765647
0.766153
0.766678
0.767224
0.767789
0.768371
0.768971
0.769587
0.770219
0.770865
0.771525
0.772197
0.772882
0.773578
0.774284
0.774999
0.775723
0.776454
0.777193
0.777938
0.778688
0.779443
0.780202
0.780965
0.78173
0.782497
0.783265
0.784035
0.784805
0.785574
0.786343
0.787111
0.787877
0.788641
0.789402
0.790161
0.790916
0.791667
0.792415
0.793158
0.793897
0.79463
0.795359
0.796082
0.7968
0.797511
0.798217
0.798916
0.799608
0.800293
0.800971
0.801642
0.802305
0.80296
0.803607
0.804246
0.804875
0.805496
0.806108
0.806711
0.807305
0.807889
0.808463
0.809028
0.809582
0.810126
0.810659
0.811182
0.811694
0.812194
0.812683
0.81316
0.813625
0.814077
0.814516
0.814941
0.815353
0.815752
0.816136
0.816506
0.816862
0.817204
0.81753
0.817842
0.818138
0.818419
0.818685
0.818935
0.81917
0.819388
0.819591
0.819777
0.819947
0.820099
0.820234
0.820352
0.820451
0.820531
0.820593
0.820635
0.820659
0.820663
0.820647
0.820612
0.820557
0.820481
0.820386
0.82027
0.820133
0.819977
0.8198
0.819602
0.819384
0.819147
0.818889
0.818611
0.818314
0.817998
0.817662
0.817308
0.816934
0.81654
0.816127
0.815695
0.815243
0.81477
0.814276
0.813761
0.813221
0.812664
0.812056
0.811546
0.810715
0.771979
0.77177
0.771621
0.771491
0.771343
0.77117
0.770976
0.770764
0.770537
0.770298
0.770049
0.769793
0.769533
0.76927
0.769008
0.768748
0.768494
0.768247
0.768009
0.767783
0.76757
0.767372
0.767192
0.76703
0.766889
0.766769
0.766672
0.766598
0.766549
0.766526
0.766528
0.766557
0.766613
0.766695
0.766805
0.766942
0.767106
0.767297
0.767515
0.76776
0.768032
0.76833
0.768653
0.769
0.769372
0.769768
0.770186
0.770626
0.771087
0.771569
0.77207
0.772591
0.773129
0.773685
0.774258
0.774847
0.77545
0.776068
0.776699
0.777343
0.777998
0.778664
0.779341
0.780026
0.780721
0.781423
0.782133
0.782848
0.78357
0.784296
0.785027
0.785762
0.7865
0.78724
0.787982
0.788726
0.78947
0.790215
0.79096
0.791704
0.792447
0.793188
0.793928
0.794666
0.7954
0.796132
0.79686
0.797585
0.798306
0.799022
0.799734
0.800442
0.801144
0.80184
0.802531
0.803216
0.803895
0.804568
0.805233
0.805892
0.806543
0.807187
0.807822
0.80845
0.80907
0.809681
0.810283
0.810877
0.811461
0.812036
0.812602
0.813157
0.813703
0.814238
0.814763
0.815277
0.81578
0.816271
0.816751
0.817219
0.817674
0.818116
0.818544
0.818959
0.819361
0.819748
0.820121
0.82048
0.820824
0.821153
0.821467
0.821765
0.822048
0.822316
0.822567
0.822802
0.823022
0.823225
0.823411
0.82358
0.823731
0.823865
0.82398
0.824077
0.824155
0.824213
0.824252
0.824271
0.824271
0.82425
0.824209
0.824148
0.824066
0.823964
0.823841
0.823697
0.823532
0.823347
0.823141
0.822914
0.822666
0.822399
0.822111
0.821803
0.821476
0.821129
0.820763
0.820377
0.819971
0.819546
0.819102
0.818637
0.818152
0.817646
0.817117
0.816564
0.815994
0.815373
0.814848
0.813992
0.779408
0.779197
0.779036
0.778888
0.77872
0.778525
0.778306
0.778068
0.777813
0.777544
0.777264
0.776975
0.776681
0.776383
0.776085
0.77579
0.775499
0.775214
0.774939
0.774675
0.774424
0.774189
0.77397
0.77377
0.773589
0.77343
0.773293
0.77318
0.773091
0.773027
0.772988
0.772976
0.772989
0.773029
0.773096
0.773189
0.773309
0.773456
0.773629
0.773828
0.774053
0.774304
0.774579
0.774879
0.775202
0.775549
0.775918
0.776308
0.77672
0.777152
0.777604
0.778075
0.778564
0.779071
0.779594
0.780134
0.780689
0.781259
0.781842
0.782439
0.783048
0.783668
0.784299
0.784941
0.785592
0.786252
0.786919
0.787594
0.788276
0.788964
0.789657
0.790355
0.791057
0.791763
0.792471
0.793183
0.793896
0.79461
0.795326
0.796042
0.796758
0.797474
0.798189
0.798903
0.799615
0.800325
0.801033
0.801739
0.802441
0.80314
0.803835
0.804527
0.805215
0.805898
0.806576
0.807249
0.807916
0.808578
0.809234
0.809884
0.810527
0.811163
0.811792
0.812413
0.813027
0.813634
0.814232
0.814821
0.815402
0.815974
0.816537
0.817091
0.817634
0.818168
0.818692
0.819205
0.819708
0.820199
0.820679
0.821147
0.821602
0.822044
0.822474
0.82289
0.823292
0.82368
0.824054
0.824413
0.824758
0.825088
0.825402
0.8257
0.825984
0.826251
0.826502
0.826736
0.826955
0.827157
0.827341
0.827508
0.827657
0.827788
0.8279
0.827994
0.828068
0.828122
0.828156
0.82817
0.828164
0.828138
0.828091
0.828023
0.827934
0.827824
0.827693
0.827541
0.827368
0.827173
0.826958
0.826721
0.826463
0.826185
0.825887
0.825568
0.825229
0.82487
0.824492
0.824093
0.823676
0.823238
0.822781
0.822304
0.821806
0.821286
0.820745
0.820179
0.819596
0.818961
0.818422
0.817542
0.787748
0.787535
0.787361
0.787194
0.787003
0.786783
0.786538
0.786271
0.785985
0.785684
0.78537
0.785046
0.784715
0.78438
0.784043
0.783708
0.783377
0.783053
0.782737
0.782432
0.78214
0.781863
0.781602
0.78136
0.781137
0.780935
0.780755
0.780597
0.780464
0.780355
0.780271
0.780213
0.78018
0.780173
0.780192
0.780237
0.780309
0.780406
0.780529
0.780677
0.780851
0.781049
0.781272
0.781518
0.781788
0.78208
0.782394
0.78273
0.783087
0.783464
0.78386
0.784275
0.784709
0.78516
0.785629
0.786113
0.786613
0.787128
0.787658
0.788201
0.788757
0.789325
0.789904
0.790495
0.791095
0.791706
0.792325
0.792952
0.793587
0.794229
0.794877
0.795531
0.796191
0.796855
0.797523
0.798195
0.798869
0.799547
0.800227
0.800908
0.80159
0.802273
0.802957
0.80364
0.804324
0.805006
0.805687
0.806366
0.807044
0.807719
0.808392
0.809062
0.809728
0.810392
0.811051
0.811706
0.812357
0.813003
0.813643
0.814279
0.814908
0.815532
0.816149
0.816759
0.817363
0.817959
0.818548
0.819129
0.819702
0.820267
0.820823
0.82137
0.821908
0.822436
0.822955
0.823464
0.823963
0.82445
0.824926
0.825391
0.825843
0.826283
0.826709
0.827123
0.827523
0.827909
0.828281
0.828639
0.828981
0.829309
0.829621
0.829918
0.830199
0.830464
0.830712
0.830945
0.83116
0.831359
0.83154
0.831704
0.831849
0.831976
0.832084
0.832172
0.832241
0.83229
0.832319
0.832327
0.832315
0.832281
0.832227
0.832152
0.832055
0.831937
0.831797
0.831636
0.831453
0.831249
0.831024
0.830777
0.830509
0.830219
0.829909
0.829579
0.829228
0.828857
0.828466
0.828055
0.827625
0.827174
0.826704
0.826214
0.825703
0.825171
0.824617
0.824039
0.823443
0.822795
0.822242
0.821342
0.797054
0.796837
0.796648
0.796459
0.796243
0.795996
0.795721
0.795422
0.795102
0.794765
0.794413
0.79405
0.793678
0.793302
0.792924
0.792546
0.792171
0.791803
0.791442
0.791092
0.790755
0.790433
0.790126
0.789837
0.789568
0.789319
0.789091
0.788886
0.788705
0.788547
0.788413
0.788304
0.788221
0.788162
0.788129
0.788121
0.788139
0.788181
0.788249
0.788341
0.788458
0.788599
0.788764
0.788951
0.789162
0.789394
0.789648
0.789923
0.790219
0.790535
0.790869
0.791223
0.791595
0.791984
0.792391
0.792813
0.793252
0.793706
0.794174
0.794656
0.795152
0.795661
0.796181
0.796713
0.797256
0.797809
0.798372
0.798944
0.799524
0.800113
0.800708
0.801311
0.80192
0.802534
0.803154
0.803779
0.804408
0.80504
0.805676
0.806314
0.806955
0.807598
0.808243
0.808888
0.809535
0.810181
0.810828
0.811474
0.812119
0.812764
0.813407
0.814048
0.814687
0.815324
0.815958
0.816588
0.817215
0.817839
0.818458
0.819073
0.819682
0.820287
0.820886
0.821479
0.822067
0.822648
0.823222
0.823789
0.824349
0.824901
0.825445
0.825981
0.826509
0.827027
0.827536
0.828036
0.828526
0.829005
0.829474
0.829931
0.830376
0.830809
0.83123
0.831638
0.832032
0.832413
0.83278
0.833132
0.83347
0.833793
0.8341
0.834392
0.834668
0.834928
0.835172
0.8354
0.835611
0.835804
0.83598
0.836139
0.836278
0.836399
0.836501
0.836583
0.836646
0.836688
0.836709
0.83671
0.836691
0.83665
0.836587
0.836504
0.836398
0.836271
0.836122
0.835951
0.835759
0.835545
0.835309
0.835051
0.834771
0.834471
0.834149
0.833807
0.833444
0.83306
0.832657
0.832233
0.83179
0.831326
0.830843
0.83034
0.829816
0.829271
0.828705
0.828114
0.827506
0.826846
0.826281
0.825364
0.807387
0.807164
0.806957
0.806743
0.806498
0.806219
0.805909
0.805573
0.805214
0.804836
0.804441
0.804034
0.803617
0.803194
0.802769
0.802343
0.80192
0.801502
0.801093
0.800694
0.800307
0.799934
0.799577
0.799238
0.798917
0.798617
0.798338
0.79808
0.797845
0.797634
0.797446
0.797282
0.797143
0.797028
0.796938
0.796872
0.79683
0.796813
0.796821
0.796852
0.796907
0.796984
0.797085
0.797208
0.797354
0.79752
0.797708
0.797916
0.798144
0.798392
0.798659
0.798944
0.799247
0.799568
0.799905
0.800259
0.800629
0.801014
0.801414
0.801828
0.802256
0.802697
0.803151
0.803616
0.804093
0.804581
0.80508
0.805588
0.806106
0.806632
0.807167
0.80771
0.808259
0.808816
0.809379
0.809947
0.810522
0.811101
0.811684
0.812271
0.812862
0.813457
0.814054
0.814653
0.815254
0.815857
0.816461
0.817066
0.817671
0.818276
0.818881
0.819486
0.82009
0.820692
0.821293
0.821892
0.822488
0.823082
0.823672
0.824259
0.824842
0.825421
0.825996
0.826565
0.82713
0.827689
0.828242
0.828789
0.82933
0.829864
0.83039
0.830909
0.83142
0.831924
0.832418
0.832904
0.83338
0.833846
0.834302
0.834747
0.835181
0.835603
0.836014
0.836411
0.836796
0.837167
0.837525
0.837869
0.838198
0.838513
0.838813
0.839097
0.839365
0.839618
0.839854
0.840074
0.840278
0.840464
0.840633
0.840783
0.840915
0.841028
0.841122
0.841197
0.841251
0.841285
0.841298
0.841291
0.841262
0.841213
0.841141
0.841048
0.840933
0.840796
0.840637
0.840456
0.840253
0.840028
0.839781
0.839512
0.839222
0.838909
0.838576
0.838221
0.837846
0.83745
0.837033
0.836597
0.836141
0.835664
0.835168
0.834652
0.834116
0.833559
0.832981
0.832378
0.831758
0.831087
0.830509
0.829579
0.818816
0.818583
0.818354
0.81811
0.81783
0.817513
0.817162
0.816782
0.816376
0.815949
0.815504
0.815044
0.814575
0.814098
0.813619
0.813138
0.812661
0.812188
0.811724
0.81127
0.810827
0.810399
0.809987
0.809592
0.809215
0.808858
0.808522
0.808207
0.807914
0.807644
0.807397
0.807173
0.806973
0.806797
0.806644
0.806515
0.806409
0.806327
0.806268
0.806232
0.806219
0.806228
0.806258
0.806311
0.806385
0.806479
0.806594
0.806728
0.806882
0.807056
0.807247
0.807457
0.807684
0.807929
0.80819
0.808467
0.808761
0.809069
0.809393
0.809731
0.810083
0.810448
0.810826
0.811217
0.81162
0.812034
0.812459
0.812895
0.813341
0.813797
0.814261
0.814735
0.815217
0.815706
0.816203
0.816707
0.817217
0.817733
0.818255
0.818782
0.819314
0.81985
0.820391
0.820935
0.821482
0.822032
0.822584
0.823139
0.823695
0.824253
0.824812
0.825371
0.825931
0.826491
0.82705
0.827609
0.828167
0.828722
0.829276
0.829828
0.830377
0.830923
0.831465
0.832004
0.832539
0.833069
0.833595
0.834115
0.83463
0.835139
0.835641
0.836137
0.836626
0.837108
0.837582
0.838048
0.838505
0.838953
0.839391
0.839819
0.840236
0.840643
0.841038
0.841421
0.841791
0.842149
0.842494
0.842825
0.843142
0.843445
0.843733
0.844006
0.844263
0.844505
0.844731
0.844941
0.845134
0.84531
0.845469
0.84561
0.845732
0.845835
0.845919
0.845984
0.846028
0.846052
0.846056
0.846039
0.846
0.84594
0.845858
0.845755
0.84563
0.845482
0.845312
0.84512
0.844907
0.84467
0.844412
0.844131
0.843829
0.843505
0.843159
0.842792
0.842405
0.841996
0.841567
0.841118
0.840649
0.84016
0.839651
0.839122
0.838574
0.838005
0.837415
0.836801
0.83617
0.835489
0.8349
0.83396
0.831818
0.831567
0.831309
0.831025
0.830701
0.830333
0.829928
0.829489
0.829023
0.828532
0.828022
0.827498
0.826962
0.82642
0.825874
0.825327
0.824784
0.824246
0.823717
0.823198
0.822691
0.822199
0.821722
0.821263
0.820822
0.8204
0.819999
0.819618
0.819259
0.818922
0.818607
0.818315
0.818046
0.817799
0.817575
0.817373
0.817195
0.817038
0.816903
0.816791
0.8167
0.81663
0.816581
0.816553
0.816546
0.816558
0.816589
0.81664
0.81671
0.816797
0.816903
0.817026
0.817167
0.817324
0.817498
0.817687
0.817893
0.818113
0.818348
0.818598
0.818862
0.81914
0.819431
0.819734
0.82005
0.820379
0.820718
0.821069
0.821431
0.821803
0.822186
0.822577