/*--------------------------------*- C++ -*----------------------------------*\
  =========                 |
  \\      /  F ield         | OpenFOAM: The Open Source CFD Toolbox
   \\    /   O peration     | Website:  https://openfoam.org
    \\  /    A nd           | Version:  7
     \\/     M anipulation  |
\*---------------------------------------------------------------------------*/
FoamFile
{
    version     2.0;
    format      ascii;
    class       volScalarField;
    location    "2.8";
    object      alpha.water;
}
// * * * * * * * * * * * * * * * * * * * * * * * * * * * * * * * * * * * * * //

dimensions      [0 0 0 0 0 0 0];

internalField   nonuniform List<scalar> 
6000
(
0
0
0
0
0
0
0
0
0
0
0
0
0
0
0
0
0
0
0
0
0
0
0
0
0
0
0
0
0
0
0
0
0
0
0
0
0
0
0
0
0
0
0
0
0
0
0
0
0
0
0
0
0
0
0
0
0
0
0
0
0
0
0
0
0
0
0
0
0
0
0
0
0
0
0
0
0
0
0
0
0
0
0
0
0
0
0
0
0
0
0
0
0
0
0
0
0
0
0
0
0
0
0
0
0
0
0
0
0
0
0
0
0
0
0
0
0
0
0
0
0
0
0
0
0
0
0
0
0
0
0
0
0
0
0
0
0
0
0
0
0
0
0
0
0
0
0
0
0
0
0
0
0
0
0
0
0
0
0
0
0
0
0
0
0
0
0
0
0
0
0
0
0
0
0
0
0
0
0
0
0
0
0
0
0
0
0
0
0
0
0
0
0
0
0
0
0
0
0
0
0
0
0
0
0
0
0
0
0
0
0
0
0
0
0
0
0
0
0
0
0
0
0
0
0
0
0
0
0
0
0
0
0
0
0
0
0
0
0
0
0
0
0
0
0
0
0
0
0
0
0
0
0
0
0
0
0
0
0
0
0
0
0
0
0
0
0
0
0
0
0
0
0
0
0
0
0
0
0
0
0
0
0
0
0
0
0
0
0
0
0
0
0
0
0
0
0
0
0
0
0
0
0
0
0
0
0
0
0
0
0
0
0
0
0
0
0
0
0
0
0
0
0
0
0
0
0
0
0
0
0
0
0
0
0
0
0
0
0
0
0
0
0
0
0
0
0
0
0
0
0
0
0
0
0
0
0
0
0
0
0
0
0
0
0
0
0
0
0
0
0
0
0
0
0
0
0
0
0
0
0
0
0
0
0
0
0
0
0
0
0
0
0
0
0
0
0
0
0
0
0
0
0
0
0
0
0
0
0
8.3604432408597e-72
7.5387176845616e-70
3.3711766372616e-68
1.0010557724576e-66
2.2195715367692e-65
3.9199583931599e-64
5.7427191368467e-63
7.1785275884204e-62
7.8155713235981e-61
7.5288372720747e-60
6.4970333309354e-59
5.0732197130883e-58
3.6142726899686e-57
2.365650115021e-56
1.430992034271e-55
8.0406437712758e-55
4.2153621080969e-54
2.0699484414976e-53
9.5534346667148e-53
4.1568700238196e-52
1.709920776396e-51
6.6659644000393e-51
2.4683341343544e-50
8.6993385135273e-50
2.9236199865323e-49
9.3853805582748e-49
2.8824635819295e-48
8.4818146528676e-48
2.39448491129e-47
6.4934721033631e-47
1.6935155723181e-46
4.2522658158821e-46
1.0289911853082e-45
2.4020163222108e-45
5.4137849077657e-45
1.1791005811721e-44
2.4835284542604e-44
5.0626672474099e-44
9.9951014122903e-44
1.912413130539e-43
3.5484327340259e-43
6.3886836721896e-43
1.1167408993028e-42
1.8962430379186e-42
3.1293831659912e-42
5.0217892930886e-42
7.8396293586141e-42
1.1911390521117e-41
1.7621509443252e-41
2.5392967081075e-41
3.5656702064718e-41
4.8807572859769e-41
6.5148630162012e-41
8.4828679394795e-41
1.0778061406263e-40
1.3367013546225e-40
1.6186541698733e-40
1.9143629397654e-40
2.2118963932343e-40
2.4974138398942e-40
2.7562078930153e-40
2.9739614049319e-40
3.1380719521354e-40
3.2388642731815e-40
3.2705408218494e-40
3.2317252070699e-40
3.1255378776325e-40
2.9592043837138e-40
2.7432561043683e-40
2.4904452476049e-40
2.2145332604993e-40
1.9290995643136e-40
1.6465092255888e-40
1.3771400704053e-40
1.1289152507717e-40
9.0714421426515e-41
7.1463333435652e-41
5.520012744597e-41
4.1812157460146e-41
3.1061641710484e-41
2.2633794004737e-41
1.6178982418057e-41
1.1346287567924e-41
7.8074829588143e-42
5.2719025020399e-42
3.4935357746861e-42
2.2721940147199e-42
1.4505981605768e-42
9.0909218428966e-43
5.5932454768017e-43
8.0341504903686e-43
0
0
0
0
0
0
0
-7.7413167551339e-62
-6.5855654892318e-60
-2.7860377760146e-58
-7.8141844125575e-57
-1.634470572881e-55
-2.7191295338154e-54
-3.7471038438387e-53
-4.3986931356017e-52
-4.489221710984e-51
-4.0454374882765e-50
-3.2581646704446e-49
-2.3681471085438e-48
-1.5656735701782e-47
-9.4769794224122e-47
-5.2801319088801e-46
-2.7198677725334e-45
-1.3000076876735e-44
-5.7820233900832e-44
-2.3981139908127e-43
-9.2874110401005e-43
-3.3599540494892e-42
-1.1346086725207e-41
-3.5673452237814e-41
-1.0388170189052e-40
-2.773023051819e-40
-6.645501101932e-40
-1.3624105402172e-39
-2.0530375887522e-39
-3.8520130392728e-40
1.3337087723539e-38
7.1554740253432e-38
2.7019857944307e-37
8.6867643144187e-37
2.5196128386396e-36
6.7660278615315e-36
1.7058607220763e-35
4.0728504467731e-35
9.2618982537821e-35
2.0143565637417e-34
4.2029297430205e-34
8.4333509604779e-34
1.6305431290001e-33
3.0426814362815e-33
5.4875001913839e-33
9.5765187547079e-33
1.6188789817048e-32
2.6534053985091e-32
4.2203080409907e-32
6.5188646946175e-32
9.7857853509621e-32
1.4285680492499e-31
2.0293349939458e-31
2.8067471866816e-31
3.7816741581463e-31
4.9661270589005e-31
6.3593790132322e-31
7.9446505272378e-31
9.686991314642e-31
1.1532924043285e-30
1.341222889824e-30
1.5241959287624e-30
1.6932433489214e-30
1.8394607869418e-30
1.9547972525463e-30
2.0327976620224e-30
2.069201997554e-30
2.062323815904e-30
2.0131625717181e-30
1.9252426730868e-30
1.8042102649549e-30
1.6572498078567e-30
1.4924017683779e-30
1.317867995558e-30
1.1413832649995e-30
9.6971300963973e-31
8.083128363445e-31
6.6115982893556e-31
5.3074303847005e-31
4.1818386834813e-31
3.234476276012e-31
2.4560522660374e-31
1.8310757205789e-31
1.3404278111728e-31
9.6355814884271e-32
6.8019697119604e-32
4.7155780415168e-32
3.2106765489532e-32
2.1470121421533e-32
1.4101363932178e-32
9.0967551075621e-33
5.763931082955e-33
3.5872728984481e-33
5.3024345413141e-33
0
0
0
0
0
0
-3.4341095566123e-60
-3.0225780596996e-58
-1.3232048906081e-56
-3.8414468363623e-55
-8.3200379421508e-54
-1.4339634924815e-52
-2.0485731442435e-51
-2.4951003335554e-50
-2.6447776138523e-49
-2.4784452651668e-48
-2.0789154700023e-47
-1.5765504707276e-46
-1.0898733255307e-45
-6.9158409351171e-45
-4.0519788461297e-44
-2.2031112504968e-43
-1.1164954027549e-42
-5.2941364170108e-42
-2.3567832853245e-41
-9.8794457351139e-41
-3.9101557409573e-40
-1.4646772071853e-39
-5.2036433888027e-39
-1.7568246986703e-38
-5.646231305522e-38
-1.7301228656445e-37
-5.0616614586495e-37
-1.4156403690848e-36
-3.7891494086485e-36
-9.7159690930949e-36
-2.3886615946723e-35
-5.6345118543142e-35
-1.2759608312072e-34
-2.7750766804833e-34
-5.7978586569118e-34
-1.1636427254087e-33
-2.2429441330305e-33
-4.1495303763126e-33
-7.3601757228692e-33
-1.2494403630877e-32
-2.0242334838123e-32
-3.1158746641921e-32
-4.5235166134339e-32
-6.1143476691648e-32
-7.5043520787202e-32
-7.8877535266304e-32
-5.8149299987248e-32
1.0687020613186e-32
1.6292920811382e-31
4.4792299555734e-31
9.3027435060024e-31
1.6891975990369e-30
2.8152554496488e-30
4.4039722076262e-30
6.54623088215e-30
9.3159637216523e-30
1.2756322966491e-29
1.6866136828202e-29
2.15888572761e-29
2.6806251800449e-29
3.2338700806907e-29
3.7953146092288e-29
4.3378605672046e-29
4.8327923491961e-29
5.2523302174177e-29
5.5722405969381e-29
5.7741586743112e-29
5.8473138309046e-29
5.7894361754127e-29
5.6067457286129e-29
5.3130610297357e-29
4.9281861969137e-29
4.4758240556477e-29
3.9813053074074e-29
3.4694172986963e-29
2.962567609104e-29
2.4794410495297e-29
2.0342205161895e-29
1.6363586017943e-29
1.2908204004332e-29
9.9867570145775e-30
7.579022882766e-30
5.6426818472834e-30
4.1218321545204e-30
2.9544175773701e-30
2.0781207656057e-30
1.4345771494992e-30
9.7199691778444e-31
6.4643428611734e-31
4.2201741304386e-31
2.7046333169032e-31
1.7016952458957e-31
1.0511673938355e-31
1.5237136966517e-31
0
0
0
0
0
1.1400622258874e-61
-1.3947913692557e-58
-1.2586565187847e-56
-5.5186556589561e-55
-1.5959055125691e-53
-3.4362743397896e-52
-5.8829346252498e-51
-8.3455902841917e-50
-1.0092675423375e-48
-1.0622906799143e-47
-9.8862128332158e-47
-8.2370097322636e-46
-6.2062184162443e-45
-4.2638397850334e-44
-2.6897246399651e-43
-1.5671570420653e-42
-8.4765880540081e-42
-4.2751407322433e-41
-2.0182765942692e-40
-8.9494353794371e-40
-3.7386447950169e-39
-1.4754195411573e-38
-5.513902078729e-38
-1.9556933777969e-37
-6.5963936059116e-37
-2.1196451088549e-36
-6.499607739239e-36
-1.9047262644316e-35
-5.3419167746448e-35
-1.4355797555672e-34
-3.7010318350285e-34
-9.1630435858544e-34
-2.1806877026624e-33
-4.9929880274135e-33
-1.1007277089711e-32
-2.3380489382849e-32
-4.7879141917313e-32
-9.4576767571003e-32
-1.8028243406521e-31
-3.3173714605052e-31
-5.8938236654513e-31
-1.0111007210545e-30
-1.6747384109353e-30
-2.6774860081927e-30
-4.1294532348388e-30
-6.1382659446785e-30
-8.7815759954483e-30
-1.2065376983092e-29
-1.5868252328566e-29
-1.9875210464491e-29
-2.3509272866899e-29
-2.5873699484713e-29
-2.5721459667194e-29
-2.1469851979783e-29
-1.127573656217e-29
6.8200652003318e-30
3.468177643207e-29
7.3817533382844e-29
1.2509863098603e-28
1.8850062995357e-28
2.6291251475718e-28
3.4605630396011e-28
4.3454670773775e-28
5.2410015305835e-28
6.0987822980077e-28
6.869270592122e-28
7.50656119613e-28
7.9729154455134e-28
8.2424174028741e-28
8.303268369642e-28
8.1584519925552e-28
7.8247560867931e-28
7.3303789430827e-28
6.7115341643177e-28
6.0085705114392e-28
5.2621326346165e-28
4.5098147127218e-28
3.7836261657967e-28
3.108428359915e-28
2.5013450125555e-28
1.9720218352481e-28
1.5235277249018e-28
1.1536545252891e-28
8.5637972705653e-29
6.2329503611291e-29
4.4485961306905e-29
3.1139679939934e-29
2.1380706914259e-29
1.4401150333645e-29
9.5166908437456e-30
6.1706540832937e-30
3.9261998905284e-30
2.4515799512061e-30
1.5024010675148e-30
2.1349808640389e-30
0
0
0
0
0
5.0379624516512e-60
-2.7987499550641e-57
-2.6121602747612e-55
-1.1522467699699e-53
-3.3311927450327e-52
-7.1536051520031e-51
-1.2200841073527e-49
-1.7232878556247e-48
-2.0743127482526e-47
-2.1727272389344e-46
-2.0121101037352e-45
-1.6681802335039e-44
-1.2507238933713e-43
-8.551034126313e-43
-5.3683565101381e-42
-3.1131666693399e-41
-1.6761575261857e-40
-8.4159275264561e-40
-3.9559427822798e-39
-1.7468216468078e-38
-7.2681297379747e-38
-2.8573130103903e-37
-1.063947627412e-36
-3.7607405510716e-36
-1.2644195726999e-35
-4.0510677788296e-35
-1.2388963676045e-34
-3.6220380432128e-34
-1.013757634991e-33
-2.7198159926539e-33
-7.0030222293447e-33
-1.7323971468314e-32
-4.1215730179229e-32
-9.4391870345461e-32
-2.082723777184e-31
-4.4309031334298e-31
-9.0954467129226e-31
-1.8026234923714e-30
-3.4513075164003e-30
-6.3867253623247e-30
-1.142814560019e-29
-1.9780159625728e-29
-3.3125104881606e-29
-5.368263445623e-29
-8.41951653693e-29
-1.2778724971576e-28
-1.8764380931572e-28
-2.6646251001424e-28
-3.6566431054015e-28
-4.843952898351e-28
-6.1841875261291e-28
-7.5906901634571e-28
-8.9250030545446e-28
-9.9949499898066e-28
-1.0560753213837e-27
-1.0350790999613e-27
-9.0871460308892e-28
-6.5191993904075e-28
-2.4615349933256e-28
3.1692176142228e-28
1.0324810009726e-27
1.8808986903366e-27
2.8278678600995e-27
3.8264602393649e-27
4.8209935846789e-27
5.7522582584222e-27
6.563408444868e-27
7.2056967838346e-27
7.6432515213931e-27
7.8562574039599e-27
7.8421701855123e-27
7.6149135654641e-27
7.2023133785239e-27
6.6422612421013e-27
5.9782320618585e-27
5.2547951915124e-27
4.5136703641116e-27
3.7907177268472e-27
3.1140563533222e-27
2.5033166503776e-27
1.9698797431254e-27
1.5178588690608e-27
1.145538023015e-27
8.4699422047935e-28
6.1367726299458e-28
4.3578769319326e-28
3.0336395050111e-28
2.0705170952713e-28
1.3857506980926e-28
9.0958429004544e-29
5.8560879276133e-29
3.6985361039436e-29
2.2916941017282e-29
1.3932569437166e-29
1.9418307270526e-29
0
0
0
0
1.1151878557743e-71
1.1097868706179e-58
-3.6921715976431e-56
-3.5910788681161e-54
-1.5970045417818e-52
-4.6216739820791e-51
-9.908386952239e-50
-1.6849804395263e-48
-2.3713310695178e-47
-2.8429218074493e-46
-2.9651604690901e-45
-2.7339114173599e-44
-2.2564683754856e-43
-1.6841587924504e-42
-1.1462248588245e-41
-7.1635053264667e-41
-4.1355196337559e-40
-2.2166744362173e-39
-1.1080740650904e-38
-5.1858586754719e-38
-2.280082855356e-37
-9.4468441774459e-37
-3.6984312164791e-36
-1.3715519258871e-35
-4.8287795569548e-35
-1.617224167585e-34
-5.1619057725844e-34
-1.5728507721595e-33
-4.5821812366982e-33
-1.278143675264e-32
-3.418033871824e-32
-8.7737420154993e-32
-2.1641513245706e-31
-5.1348811933386e-31
-1.1730730325628e-30
-2.5825689479871e-30
-5.4835495433083e-30
-1.1237695610874e-29
-2.224303910788e-29
-4.2548265153633e-29
-7.8701690195552e-29
-1.4083749586296e-28
-2.439357388168e-28
-4.0908954743934e-28
-6.6447715979842e-28
-1.0455874601926e-27
-1.5941233468869e-27
-2.3549625485876e-27
-3.370653308881e-27
-4.6732160908428e-27
-6.2735324580394e-27
-8.1492921777215e-27
-1.0233231563081e-26
-1.240405466036e-26
-1.4482769366557e-26
-1.623699103383e-26
-1.739494306207e-26
-1.7669432834103e-26
-1.6790190076341e-26
-1.454097237777e-26
-1.0796216302657e-26
-5.5511828605743e-27
1.0601734935429e-27
8.7639078186669e-27
1.7163177664387e-26
2.5772511667257e-26
3.4065058269665e-26
4.1526311934046e-26
4.770666767831e-26
5.2265400656685e-26
5.5000230500987e-26
5.5859154397916e-26
5.4934177752939e-26
5.243934652638e-26
4.8677587605094e-26
4.4001979060453e-26
3.8777122683373e-26
3.3345419591104e-26
2.8001556348503e-26
2.2976762889571e-26
1.8432753347776e-26
1.4463967948414e-26
1.110593765663e-26
8.3473100865343e-27
6.1432252953559e-27
4.4281766441555e-27
3.1270825104428e-27
2.1638946797359e-27
1.4675820837372e-27
9.7570203998004e-28
6.3599323463684e-28
4.0651254477685e-28
2.5482483546375e-28
1.5667912205715e-28
9.4500233296228e-29
1.2923997403753e-28
0
0
0
0
5.0589302432763e-70
1.6247931206747e-57
-3.5932223381008e-55
-3.6750807308203e-53
-1.6507630819882e-51
-4.7862852331273e-50
-1.0250178856516e-48
-1.7387667740157e-47
-2.4390685103903e-46
-2.9132990930929e-45
-3.0264528141578e-44
-2.7787979755328e-43
-2.2836933158244e-42
-1.6970522817245e-41
-1.1499158551149e-40
-7.154764079928e-40
-4.1121535118557e-39
-2.1943785389639e-38
-1.0920774510774e-37
-5.0884772902647e-37
-2.2274609916386e-36
-9.1886190718764e-36
-3.5817757996774e-35
-1.3225901315914e-34
-4.636591095569e-34
-1.5463139157187e-33
-4.9149900773076e-33
-1.4914405184248e-32
-4.3273202107616e-32
-1.202207270956e-31
-3.2022545349338e-31
-8.1879240492197e-31
-2.0119578209675e-30
-4.7559856837348e-30
-1.0825677148683e-29
-2.3749145581352e-29
-5.025463717749e-29
-1.0265246893972e-28
-2.0254988618041e-28
-3.8631677816931e-28
-7.1262286168761e-28
-1.272074453801e-27
-2.198417343745e-27
-3.6799042645572e-27
-5.9682945618953e-27
-9.3817282512587e-27
-1.4296714968788e-26
-2.1124150724929e-26
-3.0265124694391e-26
-4.2044714276418e-26
-5.6626116696862e-26
-7.3912992903415e-26
-9.345390284936e-26
-1.1436777580973e-25
-1.3531180390639e-25
-1.5451144732044e-25
-1.6986553905906e-25
-1.7912803417433e-25
-1.8015335315819e-25
-1.7117730044716e-25
-1.510936298363e-25
-1.196807395945e-25
-7.7735889850453e-26
-2.7086119682087e-26
2.9536015522949e-26
8.8741208078676e-26
1.4682439829112e-25
2.0014965671008e-25
2.4552335694354e-25
2.8050303472587e-25
3.036016423356e-25
3.1436567880325e-25
3.1332684403073e-25
3.0184619135208e-25
2.8188379513053e-25
2.5573373669267e-25
2.257634900857e-25
1.9418983307699e-25
1.6291250586729e-25
1.3341463195755e-25
1.0672778146078e-25
8.345117710366e-26
6.3809709603009e-26
4.7734093617146e-26
3.4947985314078e-26
2.5050194694067e-26
1.7584211384767e-26
1.2091241409457e-26
8.1462292974319e-27
5.3786279447811e-27
3.4809528786779e-27
2.2085719375068e-27
1.3739787535929e-27
8.3823524581714e-28
5.0156398696012e-28
6.7330588782218e-28
0
0
0
0
1.1395872536896e-68
1.7785152719862e-56
-2.7416367149082e-54
-2.9839916824577e-52
-1.3564928955416e-50
-3.9437225441011e-49
-8.4405765829193e-48
-1.4286932536452e-46
-1.998072137022e-45
-2.3781688080511e-44
-2.4610662193222e-43
-2.2505407435243e-42
-1.8418176317765e-41
-1.3628276296376e-40
-9.1943240300941e-40
-5.6955740999841e-39
-3.2590192052088e-38
-1.7313953191839e-37
-8.5782819041085e-37
-3.9791881125092e-36
-1.7341069497316e-35
-7.1215721474191e-35
-2.7636662741999e-34
-1.0159598018653e-33
-3.5458241265887e-33
-1.1772992476588e-32
-3.7255197961998e-32
-1.1255117378475e-31
-3.2512363420781e-31
-8.9929196477824e-31
-2.3849352874348e-30
-6.0715955401162e-30
-1.4854797815753e-29
-3.496390102128e-29
-7.9246668179639e-29
-1.7311658550334e-28
-3.6479876102266e-28
-7.4209456047459e-28
-1.4583634046077e-27
-2.7705030016093e-27
-5.0909727298547e-27
-9.0538400216524e-27
-1.5590974877271e-26
-2.6008682694767e-26
-4.2047618548319e-26
-6.5900964653564e-26
-1.0015973091077e-25
-1.4765259947722e-25
-2.1115414077358e-25
-2.9295188799992e-25
-3.9429011722373e-25
-5.1474364082351e-25
-6.5161233717761e-25
-7.994573321755e-25
-9.4991224667484e-25
-1.0918887265089e-24
-1.2122502027443e-24
-1.2969543205124e-24
-1.3325737451467e-24
-1.3080150034255e-24
-1.2161867711805e-24
-1.0553416798775e-24
-8.298409185255e-25
-5.5016883025912e-25
-2.3214290264025e-25
1.0459978057352e-25
4.3863337049515e-25
7.4899669229763e-25
1.0173411198693e-24
1.2296718306491e-24
1.3774613474311e-24
1.4580283080071e-24
1.4741978122074e-24
1.4333680059185e-24
1.3461820304103e-24
1.2250355843768e-24
1.082638691753e-24
9.3080485552753e-25
7.7957571863002e-25
6.3671993649204e-25
5.0758422335261e-25
3.9523102119401e-25
3.0077429992024e-25
2.2382133984338e-25
1.6293948531903e-25
1.1608684953483e-25
8.096896754127e-26
5.5304816005202e-26
3.7002540655252e-26
2.425647116829e-26
1.5582744223629e-26
9.812150846345e-27
6.0570930684517e-27
3.6661724845812e-27
2.176070019388e-27
2.8677228001429e-27
0
0
0
0
1.704034676624e-67
1.5524565832442e-55
-1.6992054827353e-53
-2.0006669529271e-51
-9.2258892681656e-50
-2.6918397788103e-48
-5.7603204406481e-47
-9.7318534295149e-46
-1.3572010562675e-44
-1.6099416448879e-43
-1.659857998105e-42
-1.5118606464105e-41
-1.232190206225e-40
-9.0787927067817e-40
-6.0985534723759e-39
-3.761299206465e-38
-2.14269765436e-37
-1.1332581167535e-36
-5.5895896842714e-36
-2.5811416807354e-35
-1.1197559378895e-34
-4.5776959838641e-34
-1.7683751283318e-33
-6.4710932156209e-33
-2.248151250311e-32
-7.430147852354e-32
-2.3404260106741e-31
-7.0380264263925e-31
-2.0236614411751e-30
-5.5715301990086e-30
-1.4707247374235e-29
-3.7267991224642e-29
-9.0756264153252e-29
-2.1262099960194e-28
-4.7967277650195e-28
-1.0429992185279e-27
-2.1876906105309e-27
-4.429840451965e-27
-8.6656981864327e-27
-1.6387864440078e-26
-2.9978677800868e-26
-5.3078722117535e-26
-9.1006373087933e-26
-1.5117185988357e-25
-2.4338900285883e-25
-3.7994671077364e-25
-5.7527257977138e-25
-8.4501839899402e-25
-1.2044382870046e-24
-1.6660258112611e-24
-2.2365267234391e-24
-2.913632267659e-24
-3.6828494897896e-24
-4.5151902476745e-24
-5.3663660006187e-24
-6.1780778157075e-24
-6.881733839481e-24
-7.4045317975004e-24
-7.6773754380118e-24
-7.6436470910305e-24
-7.2675412172798e-24
-6.5405676766473e-24
-5.4850074986779e-24
-4.1535368112304e-24
-2.6248520578939e-24
-9.9580949145326e-25
6.2880732383361e-25
2.1473826230542e-24
3.4718057293379e-24
4.5356181033138e-24
5.298973156249e-24
5.7499925832123e-24
5.9027039913383e-24
5.7922486076768e-24
5.4683711089409e-24
4.988310461016e-24
4.4101145775373e-24
3.7871545275967e-24
3.1642884124375e-24
2.5757945632086e-24
2.0449174981167e-24
1.5846835604436e-24
1.1995563637713e-24
8.875039802518e-25
6.4211574461489e-25
4.5450732590885e-25
3.1486139487096e-25
2.1354771110907e-25
1.4183926043987e-25
9.228662910905e-26
5.8833470723144e-26
3.6757469209493e-26
2.2510500603394e-26
1.3515063937076e-26
7.95632252572e-27
1.0293116401175e-26
0
0
0
0
1.9018754132623e-66
1.1255969894885e-54
-8.7248031153254e-53
-1.1381506257328e-50
-5.3391689285764e-49
-1.5649272734183e-47
-3.3499342445947e-46
-5.6505957699252e-45
-7.8596487600331e-44
-9.2931315755883e-43
-9.5465206213018e-42
-8.6615054018692e-41
-7.0305067708944e-40
-5.158298608506e-39
-3.4501023464217e-38
-2.1185433397732e-37
-1.2015156360075e-36
-6.3262475981315e-36
-3.1061995119373e-35
-1.4278382427365e-34
-6.1658875021545e-34
-2.5090689576503e-33
-9.6476713215142e-33
-3.5139663147311e-32
-1.2150855588554e-31
-3.9969600012894e-31
-1.2530485739111e-30
-3.7501978541505e-30
-1.0731518408614e-29
-2.9404090582409e-29
-7.7244015514876e-29
-1.9478717027301e-28
-4.7204493410813e-28
-1.1004939415178e-27
-2.4705575477511e-27
-5.3456123372051e-27
-1.1157322936167e-26
-2.2481335697023e-26
-4.3762233792197e-26
-8.235411134496e-26
-1.4991709199361e-25
-2.6414833557923e-25
-4.5071901758872e-25
-7.4513560393723e-25
-1.194059262026e-24
-1.8554373352318e-24
-2.7966832305211e-24
-4.0901582411348e-24
-5.8054308224765e-24
-7.9982581491352e-24
-1.0696938512883e-23
-1.3887532110244e-23
-1.7500273391326e-23
-2.1400075015257e-23
-2.5384119205579e-23
-2.9188975752862e-23
-3.2508435630942e-23
-3.5021439091366e-23
-3.6427418412529e-23
-3.6484505056574e-23
-3.5044832480877e-23
-3.208096742563e-23
-2.76984859378e-23
-2.2131766951598e-23
-1.5722832979114e-23
-8.8859671218693e-24
-2.0632703384377e-24
4.3222153807902e-24
9.9089875338547e-24
1.4429385421569e-23
1.7727955731374e-23
1.976465050892e-23
2.0604120498314e-23
2.0394351710439e-23
1.933905735615e-23
1.7668481328543e-23
1.5612696242402e-23
1.3380338332623e-23
1.1144329062061e-23
9.0347903699958e-24
7.1382931670243e-24
5.501907530983e-24
4.1402636842879e-24
3.043919508071e-24
2.1876512478912e-24
1.5377167055279e-24
1.0575788470554e-24
7.1194888965164e-25
4.6927412534234e-25
3.0295071212759e-25
1.9160064556832e-25
1.1874129023774e-25
7.2123409346217e-26
4.2943879506344e-26
2.5069733609451e-26
3.1835337388936e-26
0
0
0
0
1.6900333936729e-65
6.971895411474e-54
-3.734505302796e-52
-5.6013670020163e-50
-2.6824590156351e-48
-7.9073930250226e-47
-1.694180351059e-45
-2.8540692114605e-44
-3.9602411412831e-43
-4.6680237854757e-42
-4.7783683872744e-41
-4.3188089966873e-40
-3.4914330354137e-39
-2.5509666166992e-38
-1.6988792156203e-37
-1.0386333641773e-36
-5.8643333777596e-36
-3.073796223266e-35
-1.5023705802565e-34
-6.8742829667371e-34
-2.9548016099656e-33
-1.1967806199609e-32
-4.5801461913845e-32
-1.660334033551e-31
-5.713893991922e-31
-1.8705490510526e-30
-5.8358991427218e-30
-1.7381259884426e-29
-4.9495092009703e-29
-1.3494891840979e-28
-3.5275583773032e-28
-8.8512533370673e-28
-2.1342762680438e-27
-4.9506961740898e-27
-1.1057939059677e-26
-2.3804966770534e-26
-4.9432500212716e-26
-9.909464543755e-26
-1.9191012031964e-25
-3.5929475367823e-25
-6.5070359488697e-25
-1.1406396018244e-24
-1.936333759248e-24
-3.1848750735679e-24
-5.07784051072e-24
-7.8508015176216e-24
-1.1774704340351e-23
-1.7136321273954e-23
-2.4206007221135e-23
-3.3192998748487e-23
-4.4191354541854e-23
-5.7122946071915e-23
-7.1686958622734e-23
-8.7327264640337e-23
-1.0322892051291e-22
-1.1835234869915e-22
-1.3150848171081e-22
-1.4147093407203e-22
-1.4711345309405e-22
-1.4755420223878e-22
-1.4228456928491e-22
-1.3126040928279e-22
-1.1493831128014e-22
-9.4247955941092e-23
-7.050229886113e-23
-4.5257977930079e-23
-2.0146759830428e-23
3.2967250610129e-24
2.3786068362214e-23
4.0392966729794e-23
5.2604002321724e-23
6.0321935824064e-23
6.3818046264248e-23
6.3648732459858e-23
6.0553067018515e-23
5.5348099051322e-23
4.8835983135156e-23
4.1732487993669e-23
3.462128982835e-23
2.7933739387127e-23
2.1950244575473e-23
1.6817366455459e-23
1.2574149170496e-23
9.1817903692723e-24
6.552073411531e-24
4.5715855198269e-24
3.1202802148337e-24
2.084178379141e-24
1.3628408094841e-24
8.7269156181512e-25
5.4739777380214e-25
3.3641857395881e-25
2.0262277835537e-25
1.1962296624186e-25
6.9236739165698e-26
8.6291721233619e-26
0
0
0
0
1.2455785456903e-64
3.7656896130579e-53
-1.3165183018094e-51
-2.4188955590428e-49
-1.1878348721899e-47
-3.5264141643279e-46
-7.5669426218884e-45
-1.2735836155953e-43
-1.7633144532902e-42
-2.0723254855657e-41
-2.1140340066887e-40
-1.903542036728e-39
-1.5327404280592e-38
-1.1152265427597e-37
-7.39535577374e-37
-4.5014674600625e-36
-2.5302960568143e-35
-1.3202622644801e-34
-6.4234830303736e-34
-2.9255552056861e-33
-1.2516353396755e-32
-5.0456301940971e-32
-1.9218322295566e-31
-6.9334839318324e-31
-2.374615525226e-30
-7.7360777477362e-30
-2.4017945546336e-29
-7.1182231125281e-29
-2.0169761965456e-28
-5.4719544062755e-28
-1.4232065599993e-27
-3.5530845160377e-27
-8.5240304097077e-27
-1.9671659336866e-26
-4.3713577640292e-26
-9.3619136087877e-26
-1.933982057215e-25
-3.8567489993411e-25
-7.4300137510427e-25
-1.3837361107343e-24
-2.4928000318248e-24
-4.3465732482184e-24
-7.3395119353575e-24
-1.2007810480898e-23
-1.904291455873e-23
-2.9285509978804e-23
-4.3689640673195e-23
-6.3247832119708e-23
-8.8872332395606e-23
-1.2123511933022e-22
-1.6057956940037e-22
-2.0652798938678e-22
-2.5791896814045e-22
-3.127136257391e-22
-3.6800754754479e-22
-4.2017396402829e-22
-4.6514407774895e-22
-4.9880521626021e-22
-5.1747161226908e-22
-5.1836201867701e-22
-5.0000854686811e-22
-4.6252556808644e-22
-4.0768659903905e-22
-3.3878767252747e-22
-2.6031174705109e-22
-1.7744273471583e-22
-9.5502595377831e-23
-1.9395655133616e-23
4.6860846025393e-23
1.0046012166801e-22
1.3995162031331e-22
1.6520890756331e-22
1.7724702141178e-22
1.7793599793682e-22
1.6966575551348e-22
1.5501530498949e-22
1.3646859730394e-22
1.1620378362388e-22
9.5966065664979e-23
7.7019866134996e-23
6.0165806690451e-23
4.5802685374018e-23
3.4013901881355e-23
2.4660439049226e-23
1.7467117425784e-23
1.2094019035631e-23
8.1896782015746e-24
5.4262442134693e-24
3.5191229665741e-24
2.234699030498e-24
1.3898998715149e-24
8.4692317345257e-25
5.0571315428556e-25
2.9597628406324e-25
1.6981844808614e-25
2.0770892513793e-25
0
0
0
0
7.8310238484573e-64
1.8016386815105e-52
-3.6230762383956e-51
-9.2612377711341e-49
-4.6904827909568e-47
-1.4047407988024e-45
-3.0211281327954e-44
-5.0822619670834e-43
-7.0228668044077e-42
-8.2305995876274e-41
-8.3683871394196e-40
-7.5074386376884e-39
-6.0212514757886e-38
-4.3630370735617e-37
-2.8809188338616e-36
-1.7459195654085e-35
-9.7701487597912e-35
-5.0747911907584e-34
-2.457706922516e-33
-1.1141572222651e-32
-4.7443265902484e-32
-1.903499519546e-31
-7.215676361605e-31
-2.590730057311e-30
-8.8299618947627e-30
-2.8626466035782e-29
-8.8440497820698e-29
-2.6082109215809e-28
-7.3538583819514e-28
-1.9851256338993e-27
-5.1372667686728e-27
-1.2760739202658e-26
-3.045850618702e-26
-6.9933421002821e-26
-1.5460613828849e-25
-3.2940301236701e-25
-6.7694498386088e-25
-1.3429047912655e-24
-2.5734800004611e-24
-4.7673361018249e-24
-8.542498680703e-24
-1.4815045494591e-23
-2.4880855936814e-23
-4.048444748325e-23
-6.3851206444164e-23
-9.765317284509e-23
-1.4487679082572e-22
-2.0856669520956e-22
-2.9143491034519e-22
-3.9535010489661e-22
-5.2075417883391e-22
-6.6608757078351e-22
-8.2733171923703e-22
-9.9778764946604e-22
-1.1681959921098e-21
-1.3272627447168e-21
-1.4625902963808e-21
-1.5619352888945e-21
-1.6146398694678e-21
-1.6130287211471e-21
-1.5535460245834e-21
-1.4374320695721e-21
-1.2708065031025e-21
-1.0641220056331e-21
-8.310589441498e-22
-5.8702599131699e-22
-3.47494353113e-22
-1.26412118594e-22
6.5081566260558e-23
2.1948716745429e-22
3.3325128312013e-22
4.065695014086e-22
4.4278121039003e-22
4.4750038714469e-22
4.2764292608466e-22
3.9049783445934e-22
3.429543767793e-22
2.9095069389419e-22
2.3916234170659e-22
1.909101361247e-22
1.4824065467886e-22
1.1212098052469e-22
8.2689971828289e-23
5.9517826576444e-23
4.1839735385423e-23
2.8744174288697e-23
1.9309165491425e-23
1.2689175843379e-23
8.1609043827678e-24
5.1384974149072e-24
3.1685995182916e-24
1.9140664002383e-24
1.1329655294074e-24
6.5727336455151e-25
3.7379523645529e-25
4.4868329523954e-25
0
0
0
0
4.2873806133274e-63
7.7299700991488e-52
-6.1837807646846e-51
-3.166617109238e-48
-1.6668362043271e-46
-5.0461991988719e-45
-1.0887047127559e-43
-1.8314186309685e-42
-2.5265442583759e-41
-2.9533529834381e-40
-2.9932141648529e-39
-2.6756279715767e-38
-2.137645915485e-37
-1.542634233902e-36
-1.0142897450223e-35
-6.1201099115681e-35
-3.4095569852834e-34
-1.7629599264954e-33
-8.4987188482208e-33
-3.8348212582251e-32
-1.6252802011079e-31
-6.4899905321674e-31
-2.4484479752046e-30
-8.748736634424e-30
-2.9674244702898e-29
-9.5736106145995e-29
-2.9433152318885e-28
-8.6376752587462e-28
-2.4234232266393e-27
-6.5095821557997e-27
-1.6762520224102e-26
-4.1430053432754e-26
-9.8394369305235e-26
-2.2477955844566e-25
-4.9442023455342e-25
-1.0480453550629e-24
-2.1427562391969e-24
-4.2287656521004e-24
-8.0615495926407e-24
-1.485530065738e-23
-2.6477412930739e-23
-4.5672441625072e-23
-7.6287227976856e-23
-1.2344803599812e-22
-1.9361939713726e-22
-2.9445927709911e-22
-4.3438438921537e-22
-6.2178115052416e-22
-8.6384711786047e-22
-1.1651237521828e-21
-1.5258743851223e-21
-1.9405526374443e-21
-2.3966712799693e-21
-2.8743941296225e-21
-3.3471157819217e-21
-3.7831622890492e-21
-4.1485560627151e-21
-4.4105746958453e-21
-4.5416425029953e-21
-4.5229726796539e-21
-4.3473624080845e-21
-4.0206457827557e-21
-3.561515428283e-21
-2.999693497654e-21
-2.3727110661341e-21
-1.7217843191397e-21
-1.0874106299898e-21
-5.05324069338e-22
-3.3511240798046e-24
4.0047928031271e-22
6.9844846197864e-22
8.9238737857305e-22
9.9192736767147e-22
1.0121535955217e-21
9.7107671309951e-22
8.8728896773132e-22
7.7807063758913e-22
6.580893738994e-22
5.3871588724773e-22
4.2788474746267e-22
3.3036972782298e-22
2.4832043996698e-22
1.8191491820303e-22
1.3001112386776e-22
9.071799579123e-23
6.184427721264e-23
4.1214555054749e-23
2.6863729343446e-23
1.713324937067e-23
1.0696507203377e-23
6.539209586957e-24
3.9158430111811e-24
2.2975402888631e-24
1.3211336889436e-24
7.4468408813072e-25
8.7730466694382e-25
0
0
0
0
2.0764812455214e-62
3.0040010981128e-51
6.1436889069774e-51
-9.711180311459e-48
-5.3691014416949e-46
-1.6473270506692e-44
-3.569147184062e-43
-6.007284584107e-42
-8.2765151235249e-41
-9.6516876795483e-40
-9.7522028182018e-39
-8.6870733571711e-38
-6.9140082742474e-37
-4.9693979151164e-36
-3.253676773297e-35
-1.954722506026e-34
-1.0841556210389e-33
-5.5804257695044e-33
-2.6778120906974e-32
-1.2026787778088e-31
-5.0733098987889e-31
-2.0162779676302e-30
-7.5705635702379e-30
-2.6921804589599e-29
-9.08767398441e-29
-2.9178139060288e-28
-8.9273633157774e-28
-2.6072613591709e-27
-7.2797290685757e-27
-1.9459609737725e-26
-4.9866801472423e-26
-1.226517695069e-25
-2.8987315873886e-25
-6.5896941598312e-25
-1.4423286400111e-24
-3.0422423106041e-24
-6.1889298748093e-24
-1.2152507196316e-23
-2.3049302755791e-23
-4.2255428368487e-23
-7.4922253449722e-23
-1.2855656363516e-22
-2.1358261564953e-22
-3.4374882972129e-22
-5.361897694817e-22
-8.1092208934715e-22
-1.1895628424657e-21
-1.6931296572972e-21
-2.3389247459092e-21
-3.1367105709438e-21
-4.0846234047214e-21
-5.1654893494988e-21
-6.3443406054864e-21