/*--------------------------------*- C++ -*----------------------------------*\
  =========                 |
  \\      /  F ield         | OpenFOAM: The Open Source CFD Toolbox
   \\    /   O peration     | Website:  https://openfoam.org
    \\  /    A nd           | Version:  7
     \\/     M anipulation  |
\*---------------------------------------------------------------------------*/
FoamFile
{
    version     2.0;
    format      ascii;
    class       surfaceScalarField;
    location    "1";
    object      alphaPhi0.water;
}
// * * * * * * * * * * * * * * * * * * * * * * * * * * * * * * * * * * * * * //

dimensions      [0 3 -1 0 0 0 0];

internalField   nonuniform List<scalar> 
11840
(
0
0
0
0
0
0
0
0
0
0
0
0
0
0
0
0
0
0
0
0
0
0
0
0
0
0
0
0
0
0
0
0
0
0
0
0
0
0
0
0
0
0
0
0
0
0
0
0
0
0
0
0
0
0
0
0
0
0
0
0
0
0
0
0
0
0
0
0
0
0
0
0
0
0
0
0
0
0
0
0
0
0
0
0
0
0
0
0
0
0
0
0
0
0
0
0
0
0
0
0
0
0
0
0
0
0
0
0
0
0
0
0
0
0
0
0
0
0
0
0
0
0
0
0
0
0
0
0
0
0
0
0
0
0
0
0
0
0
0
0
0
0
0
0
0
0
0
0
0
0
0
0
0
0
0
0
0
0
0
0
0
0
0
0
0
0
0
0
0
0
0
0
0
0
0
0
0
0
0
0
0
0
0
0
0
0
0
0
0
0
0
0
0
0
0
0
0
0
0
0
0
0
0
0
0
0
0
0
0
0
0
0
0
0
0
0
0
0
0
0
0
0
0
0
0
0
0
0
0
0
0
0
0
0
0
0
0
0
0
0
0
0
0
0
0
0
0
0
0
0
0
0
0
0
0
0
0
0
0
0
0
0
0
0
0
0
0
0
0
0
0
0
0
0
0
0
0
0
0
0
0
0
0
0
0
0
0
0
0
0
0
0
0
0
0
0
0
0
0
0
0
0
0
0
0
0
0
0
0
0
0
0
0
0
0
0
0
0
0
0
0
0
0
0
0
0
0
0
0
0
0
0
0
0
0
0
0
0
0
0
0
0
0
0
0
0
0
0
0
0
0
0
0
0
0
0
0
0
0
0
0
0
0
0
0
0
0
0
0
0
0
0
0
0
0
0
0
0
0
0
0
0
0
0
0
0
0
0
0
0
0
0
0
0
0
0
0
0
0
0
0
0
0
0
0
0
0
0
0
0
0
0
0
0
0
0
0
0
0
0
0
0
0
0
0
0
0
0
0
0
0
0
0
0
0
0
0
0
0
0
0
0
0
0
0
0
0
0
0
0
0
0
0
0
0
0
0
0
0
0
0
0
0
0
0
0
0
0
0
0
0
0
0
0
0
0
0
0
0
0
0
0
0
0
0
0
0
0
0
0
0
0
0
0
0
0
0
0
0
0
0
0
0
0
0
0
0
0
0
0
0
0
0
0
0
0
0
0
0
0
0
0
0
0
0
0
0
0
0
0
0
0
0
0
0
0
0
0
0
0
0
0
0
0
0
0
0
0
0
0
0
0
0
0
0
0
0
0
0
0
0
0
0
0
0
0
0
0
0
0
0
0
0
0
0
0
0
0
0
0
0
0
0
0
0
0
0
0
0
0
0
0
0
0
0
0
0
0
0
0
0
0
0
0
0
0
0
0
0
0
0
0
0
0
0
0
0
0
0
0
0
0
0
0
0
0
0
0
0
0
0
1.29439794793e-52
7.1413121707724e-53
9.7859689779781e-52
6.5337065818609e-52
5.9785200258918e-51
4.0472330345867e-51
3.1804640399454e-50
2.2264448707979e-50
1.2130290132785e-49
8.3830586377005e-50
8.092435411084e-49
4.8434764247447e-49
3.3061115563507e-48
2.3168731202886e-48
1.4259372465349e-47
1.0084068868966e-47
5.6863339351417e-47
3.9518180171802e-47
3.5302782921133e-46
2.3138282048222e-46
6.9632444608397e-45
3.8651148527329e-45
1.1834268647472e-43
3.5797807914979e-44
6.3101794860578e-43
2.5577456126405e-43
7.7611509485581e-43
6.1654703344228e-43
9.8401863659959e-43
6.1401901830449e-43
1.250753344698e-42
6.5373557291772e-43
1.0624028099323e-42
9.7927262520458e-43
9.2785600817833e-43
7.2044362699756e-43
5.0205560186412e-43
6.4000438970844e-43
1.9001275967983e-43
2.5638729491841e-43
3.5601538477169e-44
8.6047768509699e-44
5.99966085953e-45
1.5493754510176e-44
1.1055554168439e-45
4.1313292930942e-45
2.0853058539695e-46
8.153168109787e-46
3.8506734296975e-47
1.6162598816108e-46
8.5846477370933e-48
2.1218416606832e-47
1.490188956917e-48
6.347505930457e-48
3.3302633539942e-49
8.7829067875926e-49
6.0414627744906e-50
1.6479635137387e-49
1.238982939828e-50
3.5882694226182e-50
2.3223896708059e-51
7.4503061273908e-51
5.2550778907498e-52
1.4801760388178e-51
1.1995405854557e-52
3.2881010353945e-52
1.7904738571645e-53
9.5710443687819e-53
4.2971027209481e-54
1.0749510520482e-53
7.0353851102564e-55
3.5699232000914e-54
1.7767435407664e-55
4.3388167034765e-55
3.2646816846274e-56
1.3686443056366e-55
5.0253599007776e-57
2.621205122751e-56
1.2566089611704e-57
3.1644685465234e-57
1.9240680002526e-58
1.0050488942189e-57
4.8357229514092e-59
1.2087785745086e-58
7.5897051216383e-60
3.8454113353491e-59
1.3980887614432e-60
5.7934640790815e-60
3.496284319999e-61
8.7918830381447e-61
5.3214349222776e-62
2.7972109961298e-61
1.3785628666868e-62
3.3248968564073e-62
2.5190545780326e-63
1.062347373221e-62
3.8530636722176e-64
2.0220670470677e-63
9.6340946548473e-65
2.4187887669439e-64
1.4625297841605e-65
7.7046141828665e-65
3.7913733631841e-66
9.1238012392551e-66
6.9335005326459e-67
2.9186304671634e-66
1.0718666508881e-67
5.5514235609735e-67
2.3143506979824e-68
6.8476362210112e-68
4.1450413024836e-69
1.7201681490753e-68
1.0667151864736e-69
2.5670302466501e-69
1.9454164412954e-70
8.2034102939981e-70
2.9488259797311e-71
1.5602301141853e-70
7.6692706438493e-72
1.8349044232486e-71
1.4193978903441e-72
5.8759224652872e-72
2.7103047204728e-73
1.1034449579568e-72
4.9799080037829e-74
2.092503856142e-73
7.5874057957735e-75
3.9863964494292e-74
1.4550617172668e-75
5.6942680772203e-75
3.2532054922806e-76
9.2075422983207e-76
6.9685153335617e-77
1.9769491158114e-76
1.4447666453415e-77
4.1961529793482e-77
3.4281453096807e-78
8.5364513666558e-78
6.2334604802879e-79
2.6172294083015e-78
9.4881641017703e-80
4.9797112259023e-79
2.0905010771185e-80
6.0078402319775e-80
4.9009152918526e-81
1.2539987926205e-80
7.2701944982759e-82
3.8952656934771e-81
1.406937675978e-82
5.4029203171829e-82
3.1083102995353e-83
8.8893557827998e-83
6.5911231465471e-84
1.8872516875808e-83
1.3610099910286e-84
3.9632725262552e-84
3.0751010209947e-85
8.1028550264984e-85
4.7317398212007e-86
2.4190889280409e-85
1.0181532873156e-86
2.9899192114219e-86
2.4423072020142e-87
6.0852024186168e-87
1.7824636099622e-87
0
0
0
0
0
0
0
0
0
0
0
0
0
0
0
0
0
0
4.3739826239961e-37
3.3101920919922e-37
7.9175138061414e-38
3.582231243382e-37
2.2764323729517e-38
5.6410814331897e-38
1.4741930589122e-36
0
2.6829262661981e-37
1.2059004322919e-36
4.8782297215432e-38
2.1951032940438e-37
8.8695248164687e-39
3.9912772398963e-38
1.612641028046e-39
7.2568837884228e-39
1.2423686305981e-38
0
2.2588520586391e-39
1.0164834247345e-38
4.1070037484776e-40
1.8481516838022e-39
7.4672795444856e-41
3.3602757946131e-40
1.3576871970848e-41
6.1095923697319e-41
8.1484114058574e-41
0
1.4815296128332e-41
6.6668825577617e-41
2.6936985848482e-42
1.2121623873879e-41
4.897968705158e-43
2.2040064756335e-42
8.9246325315514e-44
4.0118163751562e-43
1.9572165662752e-44
8.060693318959e-44
2.2001787652826e-44
5.1170214552786e-44
7.1221198456868e-44
2.3735527507774e-43
3.1874939766542e-42
0
1.4412668385703e-42
3.2051836349136e-42
1.3112931468414e-42
1.6795372017023e-42
4.3025551216325e-42
0
1.717598058517e-42
3.9030558173404e-42
1.1025497597844e-42
0
1.3183574775321e-42
0
7.4635320260606e-44
1.3075477628983e-42
7.0762750136758e-44
0
5.0616283216912e-45
6.8474078378246e-44
3.0975057552733e-45
2.0821885171522e-45
3.6492625375972e-46
2.9549218855913e-45
1.3563189506634e-46
2.5610556075418e-46
5.3683759479253e-48
1.3351616121521e-46
4.5026815754971e-48
0
9.4987588937383e-49
3.0637454659217e-48
5.1518164097899e-49
1.8499244681902e-48
1.7097576206734e-49
3.4713977271775e-49
1.8297864356297e-50
0
2.8877373805396e-50
0
3.5519691423753e-51
2.5381744007873e-50
2.5308267054409e-52
0
2.4916117263669e-52
5.9616437233829e-54
3.6133133595261e-53
0
3.6213885668742e-53
0
4.9270338896575e-54
3.1302505121005e-53
2.8970777865134e-54
0
3.9210112582725e-55
2.5055688812705e-54
2.4284961563883e-55
0
5.734245643102e-57
2.371378480065e-55
5.7357737976569e-57
0
3.4759489814551e-57
0
4.8146665079615e-58
2.9946449244974e-57
2.9420312651045e-58
0
5.3496120990624e-59
2.407131344048e-58
7.4291138145174e-60
4.606818355072e-59
4.5629325330729e-60
0
6.2556791001973e-61
3.9374087613919e-60
3.98260931836e-61
0
1.3567584376018e-62
3.8469500639598e-61
1.3567902744381e-62
0
1.8604959120135e-63
0
1.8597493332399e-63
0
1.1785943738962e-63
0
2.0168490703745e-64
9.7690992238312e-64
3.6670050275044e-65
1.6501494415046e-64
6.4806974479047e-66
0
6.4786959109793e-66
0
2.1430157446567e-67
6.2643949553718e-66
2.1423540107205e-67
0
8.8088278418814e-69
2.0542659531988e-67
8.1581786199949e-69
0
2.1046447634205e-69
0
8.2330169152171e-70
0
6.4687211409523e-70
0
9.7917872696382e-71
0
9.7883141177153e-71
0
1.8392919605108e-72
9.6043849481179e-71
1.2745707821777e-72
0
9.2750374186102e-73
0
3.6712468928693e-74
8.9079127493158e-73
3.3422162118883e-74
0
5.9790490766114e-75
0
2.0753934816204e-75
0
1.6078987916289e-75
0
2.1019933889602e-76
0
2.1011097153106e-76
0
2.0697700764751e-77
0
1.3812007651949e-77
0
0
0
0
0
0
0
0
0
0
0
0
0
0
0
0
3.9877713833837e-25
1.9996682667891e-25
1.6592949255397e-23
8.4837114310364e-24
3.2634608160607e-22
1.7105370047223e-22
3.9452222571683e-21
2.1346296704841e-21
3.1972448400298e-20
1.7997841838122e-20
1.882512969461e-19
1.0821271360249e-19
1.1520240285639e-18
6.4739223567626e-19
9.6086692586279e-18
5.2305676916363e-18
7.0628925659261e-17
3.9107620079714e-17
3.6217285823342e-16
2.1555473993374e-16
1.2919142155461e-15
8.4256220300303e-16
3.0223532266421e-15
2.2079170431042e-15
5.1689664188059e-15
4.1278674283387e-15
7.8565862852825e-15
6.5098025672479e-15
1.1750703253426e-14
9.8935767681064e-15
1.6678771835983e-14
1.4697253092412e-14
1.9524379810748e-14
1.9078518462061e-14
1.9738608134153e-14
2.0174238707244e-14
1.8937323897542e-14
1.9679352261866e-14
1.6362609692201e-14
1.7782594806609e-14
1.1875858854218e-14
1.3970608158065e-14
6.706465323576e-15
8.9609124936768e-15
2.6976710137467e-15
4.3627528579638e-15
7.7705409787413e-16
1.5520872431524e-15
1.9324054658406e-16
4.3666322682696e-16
5.1594465102163e-17
1.1631645887789e-16
1.571451322698e-17
3.3330861207906e-17
5.251419322894e-18
1.0506923501699e-17
1.8269347068104e-18
3.5362658363993e-18
6.3898020155208e-19
1.2241649086631e-18
2.2130940685062e-19
4.2516686478548e-19
7.5559774133485e-20
1.4648607453312e-19
2.529577632507e-20
4.9761346632764e-20
8.2113962084305e-21
1.6519624995549e-20
2.5525665585331e-21
5.2951190040887e-21
7.5578088655324e-22
1.6235042634199e-21
2.1433431796591e-22
4.7569703859813e-22
5.8943564393054e-23
1.342153288205e-22
1.5900925591121e-23
3.6863874456798e-23
4.2341109519091e-24
9.9425419319776e-24
1.1148079581297e-24
2.6451438865227e-24
2.9021802033747e-25
6.9523189988416e-25
7.4714264753578e-26
1.8062169200216e-25
1.9035449559648e-26
4.6412756889424e-26
4.8043329413205e-27
1.1806177931444e-26
1.202258158547e-27
2.9756525742738e-27
2.9850754492854e-28
7.437037166669e-28
7.357710755653e-29
1.8443467912803e-28
1.8012127563272e-29
4.5409268034672e-29
4.3813564646183e-30
1.1104818837197e-29
1.0593589806989e-30
2.6985380414207e-30
2.5469582987136e-31
6.5187233367042e-31
6.0909147823177e-32
1.5658989827973e-31
1.4492723278557e-32
3.7416892610325e-32
3.4319256530924e-33
8.8960544126611e-33
8.0900282865544e-34
2.1050621195506e-33
1.8988114673541e-34
4.9587551297235e-34
4.4383445969131e-35
1.1630937817679e-34
1.033352542213e-35
2.716925437037e-35
2.3968410487992e-36
6.3218117307854e-36
5.5393992471669e-37
1.4654811666142e-36
1.2758024166018e-37
3.3850293036968e-37
2.9286110443938e-38
7.7920547430554e-38
6.7012174357687e-39
1.7877568818013e-38
1.5286640651253e-39
4.0887205292267e-39
3.4768506216879e-40
9.3226834182879e-40
7.8853671839307e-41
2.1194236420693e-40
1.7834594998307e-41
4.8046721542192e-41
4.0230091687297e-42
1.0862304932852e-41
9.0515698629555e-43
2.449249763214e-42
2.0315075446071e-43
5.5085249903931e-43
4.5485101871413e-44
1.2358476495306e-43
1.0160353757607e-44
2.7660253477722e-44
2.2644797541333e-45
6.1764854416e-45
5.0359042902396e-46
1.3761047692193e-45
1.1175421182863e-46
3.0592544461944e-46
2.4748812892903e-47
6.7867443022115e-47
5.4698352763658e-48
1.5025038049923e-47
1.206556611636e-48
3.3197321479058e-48
2.6564265305126e-49
7.3206200835322e-49
5.8377648030423e-50
1.6112871709118e-49
1.2806047699103e-50
3.5399746503603e-50
2.8042938299534e-51
7.7633717208215e-51
6.1304320438988e-52
1.6995879229282e-51
1.3379389249412e-52
3.714488921031e-52
2.9152571761985e-53
8.1046640762401e-53
6.3420485106397e-54
1.7655058149829e-53
1.3775714274766e-54
3.8398788446849e-54
2.9874669199663e-55
8.3388632039868e-55
6.4765548458252e-56
1.80767867396e-55
1.3824070744938e-56
3.9264499707872e-56
3.4350276804377e-57
8.1511982216834e-57
2.5579915356306e-57
0
0
0
0
0
0
0
0
0
0
0
0
3.7128066354673e-25
1.8462175624408e-25
2.2178880983134e-23
1.1019375080191e-23
6.0478893364837e-22
3.0276971185764e-22
1.0325223521591e-20
5.2409029273021e-21
1.2284871855373e-19
6.3713082970524e-20
1.0563703360409e-18
5.6692201458044e-19
6.4262865633093e-18
3.6115167002604e-18
2.9787709010517e-17
1.7217238435526e-17
1.3261862525509e-16
7.4071993728867e-17
7.9839518648149e-16
4.0906062950208e-16
7.1714526289727e-15
3.4570549261044e-15
3.8693849136647e-14
2.1081355393862e-14
1.1401409857284e-13
7.9739854876755e-14
1.7308805493688e-13
1.5758324620113e-13
2.0926999791961e-13
2.4748876771784e-13
2.9749750200286e-13
3.406186348078e-13
4.3791226164463e-13
4.9979754908056e-13
5.2269395549408e-13
6.534703372743e-13
5.2806840786913e-13
6.8606232372714e-13
4.9789470257698e-13
6.5716916349242e-13
4.0766239563427e-13
5.652589385184e-13
2.6479834068789e-13
3.9670204738465e-13
1.2974943151917e-13
2.1075929403048e-13
4.6713415301533e-14
8.2797420106803e-14
1.3395453540508e-14
2.602890438957e-14
3.7890376216555e-15
7.5580058887098e-15
1.213270807082e-15
2.3161235930379e-15
4.350887939049e-16
7.8572422138889e-16
1.6489752378806e-16
2.8797302802266e-16
6.3122222107213e-17
1.0926094368482e-16
2.3882629118271e-17
4.1603331220032e-17
8.8861400411146e-18
1.5672823445053e-17
3.2525680350769e-18
5.8193641533149e-18
1.1672538617396e-18
2.1250006706469e-18
4.0652235753491e-19
7.5807444242418e-19
1.3550336774243e-19
2.611299097788e-19
4.27812539452e-20
8.5800707094505e-20
1.2788137041805e-20
2.6724217216397e-20
3.6560798907271e-21
7.9175321225079e-21
1.0144023977853e-21
2.2558082032602e-21
2.7630742336498e-22
6.2574113478001e-22
7.4292508660545e-23
1.7047007407655e-22
1.9742358273172e-23
4.579910645792e-23
5.1847104605548e-24
1.2150840842722e-23
1.3460254463997e-24
3.18519765455e-24
3.4574885624916e-25
8.2557336573022e-25
8.7961446308544e-26
2.117726913109e-25
2.21836015209e-26
5.3812904330718e-26
5.5498142369849e-27
1.3556664328874e-26
1.3780754389622e-27
3.3880800639291e-27
3.3980264150354e-28
8.4048336638887e-28
8.3239826412942e-29
2.0705742495415e-28
2.026561976269e-29
5.0679077302117e-29
4.9053429750874e-30
1.2328600887677e-29
1.1808659387075e-30
2.9819476064349e-30
2.8280117446048e-31
7.1734205983313e-31
6.7394971086755e-32
1.7167960187963e-31
1.5986220393512e-32
4.0887643539675e-32
3.7751456994197e-33
9.6928509819722e-33
8.8773036865473e-34
2.2876707469885e-33
2.0790779655e-34
5.3765889779529e-34
4.8504221151534e-35
1.2585587340463e-34
1.1274013184538e-35
2.9347383045712e-35
2.6111629957595e-36
6.8181251264709e-36
6.0270884496754e-37
1.5784316679365e-36
1.3866182337282e-37
3.6417735331093e-37
3.1800644834158e-38
8.3749745280645e-38
7.271017163484e-39
1.9199542869807e-38
1.6576090262981e-39
4.3881878587148e-39
3.7682644437666e-40
1.0000311255783e-39
8.5430911058816e-41
2.2725846820061e-40
1.9317137868551e-41
5.1504668541486e-41
4.3567444375694e-42
1.1642129961149e-41
9.801858292841e-43
2.6249123590163e-42
2.1999629823867e-43
5.9037625573697e-43
4.926231335804e-44
1.3246709317489e-43
1.1006188644307e-44
2.9654035443385e-44
2.45363845736e-45
6.6234810555446e-45
5.4583704605279e-46
1.4761960558009e-45
1.2117703384805e-46
3.2831006221491e-46
2.6847715410534e-47
7.2867292568369e-47
5.9367363408808e-48
1.614039033516e-47
1.310280361604e-48
3.5682226103529e-48
2.886545344282e-49
7.8735184323011e-49
6.347619999604e-50
1.7341484033662e-49
1.3934187751387e-50
3.8126308021606e-50
3.0535821752562e-51
8.3676599291117e-51
6.6805577921206e-52
1.833339996583e-51
1.4591900804793e-52
4.0101352636307e-52
3.1818610308405e-53
8.7574918485271e-53
6.9353054536678e-54
1.908938948563e-53
1.48824304975e-54
4.1689303435376e-54
3.7189715598648e-55
8.7014227394154e-55
2.7480160452339e-55
0
0
0
0
0
0
0
0
0
0
1.601444757249e-25
7.872071822127e-26
1.3427432228263e-23
6.5402456059732e-24
4.6192140451575e-22
2.2486561043906e-22
9.4870647698282e-21
4.6367663916046e-21
1.3622670574198e-19
6.7027382897567e-20
1.483011400018e-18
7.3743897767908e-19
1.2633254394611e-17
6.3994658635935e-18
8.38871873977e-17
4.4023321434892e-17
4.1100803509628e-16
2.2866522281367e-16
1.4810332066374e-15
8.5815621470138e-16
5.1148608412611e-15
2.819677841188e-15
2.4626083133852e-14
1.135866519542e-14
2.0681423114932e-13
7.4834062911665e-14
2.4165452698144e-12
6.9936125375941e-13
6.495069841742e-12
4.6219365025438e-12
8.4010873255708e-12
9.8180699072772e-12
1.0275952572949e-11
1.3450600188194e-11
1.2671031648109e-11
1.6952605239232e-11
1.349658776395e-11
1.941054069898e-11
1.3435052690526e-11
1.9556347325273e-11
1.2206537558469e-11
1.8538927342328e-11
9.3786434750064e-12
1.5580789906583e-11
5.3190454891461e-12
1.0389599043235e-11
1.942071709384e-12
4.813638210948e-12
4.5423147951752e-13
1.3742843670784e-12
1.0311274005537e-13
2.7319600695699e-13
3.1673186461015e-14
6.2039153213758e-14
1.2128280292863e-14
2.0025629370084e-14
5.1263226036999e-15
7.8600361223297e-15
2.1992529167711e-15
3.3204910556598e-15
9.2763435939643e-16
1.4174551339757e-15
3.8244522278508e-16
5.9679879753733e-16
1.5442124337757e-16
2.463003064331e-16
6.1225543001408e-17
9.9672293124148e-17
2.3815856691207e-17
3.9583474691083e-17
9.0158635706481e-18
1.5371533166487e-17
3.2710771160437e-18
5.7740785295273e-18
1.118685290396e-18
2.0655939836236e-18
3.5759416765591e-19
6.9469159551955e-19
1.0744770353593e-19
2.1905213328854e-19
3.0857914418675e-20
6.5368412626196e-20
8.6221125320797e-21
1.8754364318765e-20
2.3700833845614e-21
5.2465283666659e-21
6.43427248128e-22
1.4429447943744e-21
1.7255781754897e-22
3.9139793346497e-22
4.5708736142485e-23
1.0479997737011e-22
1.1965415007494e-23
2.7715068915805e-23
3.098604477149e-24
7.2451527424468e-24
7.9463994711596e-25
1.8741055147446e-24
2.0198193724119e-25
4.8013842791616e-25
5.0919496984216e-26
1.2192935345931e-25
1.273878468478e-26
3.0711645339683e-26
3.1641687724207e-27
7.6770445475509e-27
7.8068199131429e-28
1.905446119859e-27
1.9140261338782e-28
4.6979056606065e-28
4.6648696079107e-29
1.1510410438518e-28
1.1305568083161e-29
2.8035793198715e-29
2.7254392695393e-30
6.7906600841324e-30
6.537179417786e-31
1.6361263464972e-30
1.5604957152599e-31
3.9223350664327e-31
3.7081105722611e-32
9.3584289547363e-32
8.7730874494644e-33
2.2227481567016e-32
2.0670295398149e-33
5.2565101655546e-33
4.850805216866e-34
1.2379658484202e-33
1.134035830175e-34
2.9040327097246e-34
2.6415163114301e-35
6.7865374656827e-35
6.1313570914422e-36
1.5802147942403e-35
1.4183903871429e-36
3.6666361332784e-36
3.2705899147013e-37
8.4793373266652e-37
7.5179494698264e-38
1.9545792310214e-37
1.7229172304387e-38
4.4915203639539e-38
3.9370139863865e-39
1.0290359372213e-38
8.9711933756101e-40
2.3507707968106e-39
2.0387076348943e-40
5.3551974980644e-40
4.6208265097142e-41
1.2166527275899e-40
1.0446740331691e-41
2.7569060662722e-41
2.3559869643026e-42
6.2312862398041e-42
5.3006442723645e-43
1.4049735127956e-42
1.1898144123262e-43
3.1602818689597e-43
2.664735706071e-44
7.0922111715019e-44
5.9549968851022e-45
1.5880531730836e-44
1.327969847551e-45
3.5481660264061e-45
2.9552873734786e-46
7.9108834105121e-46
6.5635747417892e-47
1.7601658938822e-46
1.4549017172835e-47
3.9085352981668e-47
3.2188567532927e-48
8.6622250592093e-48
7.1082995206419e-49
1.9161170187509e-48
1.5669180578998e-49
4.2307067735103e-49
3.4479633135352e-50
9.3244348069149e-50
7.5742015963074e-51
2.0514902633042e-50
1.660904981943e-51
4.5059105806674e-51
3.6402344074756e-52
9.8775972620218e-52
7.8542478106225e-53
2.1691832705116e-52
1.9741309475218e-53
4.5524559612184e-53
1.4472063029189e-53
0
0
0
0
0
0
0
0
0
0
3.5244964865736e-24
1.6580799670719e-24
2.0075295868702e-22
9.4481577517098e-23
5.4145740610073e-21
2.5579845120378e-21
9.2901842240486e-20
4.4148578323042e-20
1.1489979689337e-18
5.4958602890836e-19
1.1037261716042e-17
5.3108161297114e-18
8.6503361522676e-17
4.1923714491595e-17
5.6236927422986e-16
2.7642464161912e-16
2.9766928673027e-15
1.5181424165194e-15
1.1669114378744e-14
6.4192684694629e-15
3.2490253118152e-14
1.9083269125166e-14
8.1964735527821e-14
4.4878818707543e-14
3.1033633524836e-13
1.1485878701285e-13
2.9791040343332e-12
5.8794640936548e-13
6.6609391840907e-11
1.2546022339161e-11
4.8304749423942e-10
2.1610270593709e-10
4.7168420639736e-10
6.2937147379614e-10
3.764685426227e-10
6.0295358723401e-10
3.2306748435158e-10
5.1261515170248e-10
2.8765509953747e-10
4.5246541448274e-10
2.4656551650592e-10
3.9711752206089e-10
1.8313345008138e-10
3.1922502564211e-10
1.024951467774e-10
2.1035163054797e-10
3.5860104963075e-11
9.7974674880913e-11
6.7464585245059e-12
2.735182310055e-11
9.6420896508876e-13
4.6053877917788e-12
2.0794027646394e-13
7.2466153671106e-13
7.0478473691513e-14
1.5014542797012e-13
3.2148603357799e-14
4.668321184976e-14
1.5295771722625e-14
2.0385519850523e-14
7.2185588215522e-15
9.5904710651914e-15
3.3362300914677e-15
4.5296310983721e-15
1.5025954816383e-15
2.1019810215494e-15
6.6000055792677e-16
9.5182823032749e-16
2.8307809650606e-16
4.204052252428e-16
1.1802851143974e-16
1.8087408184943e-16
4.7193965639682e-17
7.5186700969015e-17
1.7751767784929e-17
2.9728687779504e-17
6.1842305388541e-18
1.0990228225106e-17
1.990838238056e-18
3.7617651069739e-18
6.0038545432882e-19
1.1967228801841e-18
1.73378970105e-19
3.5946041831474e-19
4.8844973569474e-20
1.039157932381e-19
1.3553980080855e-20
2.9332201787186e-20
3.7139102778896e-21
8.1437041974375e-21
1.0047408495972e-21
2.2294544189249e-21
2.68366771745e-22
6.0225749771985e-22
7.0822885269945e-23
1.6063709875958e-22
1.8486914947282e-23
4.2344123311065e-23
4.7780768670805e-24
1.1042709740035e-23
1.2237809864809e-24
2.8516990610632e-24
3.1081823004842e-25
7.2982579288269e-25
7.8326309752579e-26
1.8522838275947e-25
1.9594159976473e-26
4.6646103108384e-26
4.868125922987e-27
1.1661700219485e-26
1.2016891081649e-27
2.8956343548641e-27
2.9483490903521e-28
7.1439399475706e-28
7.1923020735382e-29
1.7518767540991e-28
1.7449845866277e-29
4.2715480320405e-29
4.2118294672189e-30
1.0358913898738e-29
1.0116171011983e-30
2.4992523184872e-30
2.4184073654419e-31
6.0004339470148e-31
5.7557827312895e-32
1.4339457966812e-31
1.3640414928409e-32
3.4115621625206e-32
3.2194321096555e-33
8.0822121254671e-33
7.5689212710685e-34
1.9069672285078e-33
1.7728055469517e-34
4.4819418063274e-34
4.137379151967e-35
1.0494652521198e-34
9.6224824344129e-36
2.4485728742945e-35
2.2305047417884e-36
5.6932622756804e-36
5.1537876268629e-37
1.3193766477305e-36
1.1871542398298e-37
3.0478151411032e-37
2.7264153447607e-38
7.0189198617818e-38
6.2434610323104e-39
1.6116119167382e-38
1.4257687953997e-39
3.6898031418951e-39
3.2471519986478e-40
8.4244200776816e-40
7.3760410838985e-41
1.9182720683005e-40
1.6712701377192e-41
4.3566326292771e-41
3.7775150228739e-42
9.8695523893337e-42
8.5179263651391e-43
2.2304021820842e-42
1.9162847294429e-43
5.028516327195e-43
4.3014368306423e-44
1.1310913919655e-43
9.6343389963354e-45
2.5385482119731e-44
2.1533339810442e-45
5.68499909699e-45
4.802938199847e-46
1.2704534609442e-45
1.0691352664954e-46
2.8333186593478e-46
2.3752604121302e-47
6.3061485257816e-47
5.2670158428906e-48
1.4008377756456e-47
1.1657717685833e-48
3.1059053567574e-48
2.5756172879954e-49
6.8736181177961e-49
5.6799631840594e-50
1.5184811349209e-49
1.2518363759104e-50
3.3477436322709e-50
2.7158387728952e-51
7.393117151382e-51
6.8663043415318e-52
1.5601577827401e-51
4.9929104467435e-52
0
0
0
0
0
0
0
0
1.7867514132555e-38
5.1190601481601e-39
3.6148118701823e-23
1.6176624754586e-23
1.7505712254286e-21
7.8906214600957e-22
4.1371813156861e-20
1.8806297471811e-20
6.3298057012434e-19
2.9046601623005e-19
7.0335417563806e-18
3.2592117550951e-18
6.0627694986319e-17
2.8327609921115e-17
4.262221233625e-16
2.0017423527258e-16
2.5323330505269e-15
1.1927706394554e-15
1.2958171255469e-14
6.1645308265193e-15
5.4609004015617e-14
2.7076503225119e-14
1.6771479462359e-13
9.3361170504146e-14
3.2570856125352e-13
2.0553553459542e-13
5.9449869862891e-13
3.0834438308821e-13
3.1208906978249e-12
7.5980968732816e-13
6.1675489868111e-11
9.6629655184585e-12
1.0146682879145e-09
1.6244370131729e-10
1.2431215069926e-08
4.2887046000924e-09
1.1753103332691e-08
1.3680821583463e-08
8.1826373404111e-09
1.3903758592648e-08
5.8380870251702e-09
1.0249523572177e-08
4.3548468894874e-09
7.6350618679639e-09
3.088808796706e-09
5.6332630263719e-09
1.7716657084717e-09
3.6515521296837e-09
6.7376383162649e-10
1.7785125672604e-09
1.3875982127339e-10
5.4420590859152e-10
1.827645064173e-11
9.6623888695103e-11
3.2076322406933e-12
1.4860042052384e-11
6.3806838406482e-13
2.7249471617906e-12
1.6565065169511e-13
5.1687537910984e-13
6.6883766308764e-14
1.1882109715184e-13
3.3559526405728e-14
4.3152826990632e-14
1.7360357233435e-14
2.0995083785531e-14
8.855230376485e-15
1.0768683836969e-14
4.4026739270004e-15
5.5045216768977e-15
2.1289823235432e-15
2.7574170302372e-15
9.9778190406244e-16
1.3436834848002e-15
4.4801160157628e-16
6.3131916302441e-16
1.8902187216407e-16
2.8166627348846e-16
7.3421444641901e-17
1.1703695395296e-16
2.5956756924846e-17
4.456370306357e-17
8.3975546446867e-18
1.5478922482783e-17
2.5397939436789e-18
4.9589402631705e-18
7.3714491676365e-19
1.4975698197403e-18
2.0923651410154e-19
4.3581248953577e-19
5.8559857540468e-20
1.2400781973372e-19
1.6182053520625e-20
3.4725015918453e-20
4.4129023833659e-21
9.5868799034504e-21
1.1877091004834e-21
2.6108077525623e-21
3.1577725302494e-22
7.0183121211803e-22
8.3031788425077e-23
1.8642016605955e-22
2.1614863791865e-23
4.8980571840792e-23
5.5752117508131e-24
1.2741959339142e-23
1.425798690741e-24
3.2844990066506e-24
3.6173536718742e-25
8.3947529315361e-25
9.1092418237822e-26
2.1286370301071e-25
2.2778917633506e-26
5.3576249334073e-26
5.6588042346583e-27
1.3391194145981e-26
1.3970765957951e-27
3.3252310370885e-27
3.4289996000554e-28
8.2061889527071e-28
8.369521995346e-29
2.0133756415897e-28
2.0320882749171e-29
4.9125272564271e-29
4.9091423737447e-30
1.1923499408155e-29
1.1803021754428e-30
2.8796034550706e-30
2.8248840603265e-31
6.9214078874304e-31
6.7315645430811e-32
1.6560888945529e-31
1.5974271039849e-32
3.9453706301722e-32
3.7756490925895e-33
9.3602633717102e-33
8.8899313852231e-34
2.2118711847192e-33
2.0854863182947e-34
5.2068290586035e-34
4.8750613457948e-35
1.2212204774793e-34
1.1357281175019e-35
2.8541933820368e-35
2.6372081555368e-36
6.6481175455123e-36
6.104373667059e-37
1.5434545620882e-36
1.4086802283605e-37
3.5720664269041e-37
3.2411828507492e-38
8.2418254593042e-38
7.4363036980188e-39
1.8960530058111e-38
1.7014277490289e-39
4.3495383764833e-39
3.882494887111e-40
9.9504250504469e-40
8.8366050270546e-41
2.2703032574194e-40
2.0061873862693e-41
5.1666126522062e-41
4.5436163905829e-42
1.1728484638344e-41
1.0266134206358e-42
2.6559771910671e-42
2.3142850488222e-43
6.000453754277e-43
5.2054648171296e-44
1.3525413524951e-43
1.1683198446984e-44
3.0419475842955e-44
2.6166712543738e-45
6.826755195823e-45
5.8485229838461e-46
1.5288464287774e-45
1.3045966855853e-46
3.4168403603853e-46
2.9044339124492e-47
7.6211439386949e-47
6.453964387382e-48
1.6965701541749e-47
1.4313658216226e-48
3.7697356227423e-48
3.1722974129947e-49
8.3585666839443e-49
6.9201291138967e-50
1.8562743244361e-49
1.7599111309527e-50
3.9389009972196e-50
1.2690507735244e-50
0
0
0
0
0
0
0
0
4.6498353210654e-39
4.6922482708595e-40
2.2865921425123e-22
9.7083671498385e-23
1.0207881757186e-20
4.3864464397762e-21
2.2373811884534e-19
9.7276152635143e-20
3.1848183434569e-18
1.401505482392e-18
3.2900232967326e-17
1.4664682387169e-17
2.6182743499004e-16
1.1822468512233e-16
1.6761307481513e-15
7.6467503174281e-16
8.9672154414625e-15
4.1065090699778e-15
4.1710753330846e-14
1.9043091622797e-14
1.707534129589e-13
7.8530989632227e-14
5.7474628686891e-13
2.823149465046e-13
1.2633158647408e-12
7.8632347199361e-13
1.8470211929042e-12
1.2604822280615e-12
4.5300040739796e-12
1.9531420435693e-12
4.3580932163191e-11
9.810169799606e-12
7.6735922661418e-10
1.1689692843652e-10
1.2352356124065e-08
1.4021265543409e-09
1.4944576686712e-07
3.510410147585e-08
1.7283380960152e-07
1.5169746719878e-07
1.1421087233221e-07
1.9407779484352e-07
7.6541563290499e-08
1.3971163165134e-07
5.1507018308294e-08
9.6941475633516e-08
3.0243299050705e-08
6.2117213311397e-08
1.2818060415098e-08
3.2001091973408e-08
3.1481868807007e-09
1.1092882379222e-08
4.3489527264984e-10
2.2558259887155e-09
7.0512943520009e-11
3.3628198182215e-10
1.3214928314512e-11
5.9667083805955e-11
2.5303346406479e-12
1.1293334484722e-11
5.175600934362e-13
2.1317479721724e-12
1.4588654026815e-13
4.1562341866426e-13
6.4659078339077e-14
1.0335465432993e-13
3.4869994635327e-14
4.1603123478893e-14
1.9346413591993e-14
2.1828024047331e-14
1.0642264042332e-14
1.2064919245928e-14
5.7051837164905e-15
6.6738660885354e-15
2.932775103556e-15
3.5961224707065e-15
1.4162003267261e-15
1.8448474544427e-15
6.2730541531547e-16
8.8016221195738e-16
2.4981350734274e-16
3.8186382428635e-16
8.8888445567718e-17
1.48523141308e-16
2.8682512031822e-17
5.1895146664301e-17
8.6570397462232e-18
1.6623317443392e-17
2.5203200915633e-18
5.0262008004539e-18
7.2051328651951e-19
1.4699824006119e-18
2.0333915448865e-19
4.2140593203412e-19
5.6629544984575e-20
1.189535351074e-19
1.5552672751859e-20
3.3092491079859e-20
4.2141557095152e-21
9.0772358409032e-21
1.1279009206744e-21
2.4572058548568e-21
2.9854894397567e-22
6.571936094641e-22
7.8230299816564e-23
1.7385359912838e-22
2.0308998581404e-23
4.553149509962e-23
5.2268448963649e-24
1.1814346943432e-23
1.3343768743235e-24
3.0392153985199e-24
3.380883068397e-25
7.7556447399826e-25
8.505443478282e-26
1.9642774340245e-25
2.1254995676388e-26
4.9398859524523e-26
5.2782090839105e-27
1.2340725135711e-26
1.3029344228756e-27
3.0636353765237e-27
3.198191703867e-28
7.5605594579061e-28
7.8082967124148e-29
1.8553501750327e-28
1.8966694591172e-29
4.5287258856464e-29
4.5847437713321e-30
1.0998090223961e-29
1.1031206519625e-30
2.6579910403915e-30
2.6424374350701e-31
6.3941174199744e-31
6.3029361362765e-32
1.5313951381475e-31
1.4973195961287e-32
3.6522101412138e-32
3.5431632970849e-33
8.6748621366099e-33
8.3529478782245e-34
2.0524803358346e-33
1.9621078437381e-34
4.8380635593465e-34
4.5930279870794e-35
1.1363248940897e-34
1.0715771464619e-35
2.6596849336557e-35
2.4919977866414e-36
6.2045365402673e-36
5.777240200583e-37
1.4427512930745e-36
1.3353271760599e-37
3.3444527180825e-37