/*--------------------------------*- C++ -*----------------------------------*\
  =========                 |
  \\      /  F ield         | OpenFOAM: The Open Source CFD Toolbox
   \\    /   O peration     | Website:  https://openfoam.org
    \\  /    A nd           | Version:  7
     \\/     M anipulation  |
\*---------------------------------------------------------------------------*/
FoamFile
{
    version     2.0;
    format      ascii;
    class       volScalarField;
    location    "1";
    object      alpha.water;
}
// * * * * * * * * * * * * * * * * * * * * * * * * * * * * * * * * * * * * * //

dimensions      [0 0 0 0 0 0 0];

internalField   nonuniform List<scalar> 
6000
(
0
0
0
0
0
0
0
0
0
0
0
0
0
0
0
0
0
0
0
0
0
0
0
0
0
0
0
0
0
0
0
0
0
0
0
0
0
0
0
0
0
0
0
0
0
0
0
0
0
0
0
0
0
0
0
0
0
0
0
0
0
0
0
0
0
0
0
0
0
0
0
0
0
0
0
0
0
0
0
0
0
0
0
0
0
0
0
0
0
0
0
0
0
0
0
0
0
0
0
0
0
0
0
0
0
0
0
0
0
0
0
0
0
0
0
0
0
0
0
0
0
0
0
0
0
0
0
0
0
0
0
0
0
0
0
0
0
0
0
0
0
0
0
0
0
0
0
0
0
0
0
0
0
0
0
0
0
0
0
0
0
0
0
0
0
0
0
0
0
0
0
0
0
0
0
0
0
0
0
0
0
0
0
0
0
0
0
0
0
0
0
0
0
0
0
0
0
0
0
0
0
0
0
0
0
0
0
0
0
0
0
0
0
0
0
0
0
0
0
0
0
0
0
0
0
0
0
0
0
0
0
0
0
0
0
0
0
0
0
0
0
0
0
0
0
0
0
0
0
0
0
0
0
0
0
0
0
0
0
0
0
0
0
0
0
0
0
0
0
0
0
0
0
0
0
0
0
0
0
0
0
0
0
0
0
0
0
0
0
0
0
0
0
0
0
0
0
0
0
0
0
0
0
0
0
0
0
0
0
0
0
0
0
0
0
0
0
1.2983907543138e-50
9.9869786457997e-50
6.2798790686647e-49
3.5157059889867e-48
1.3273002485202e-47
9.098579148019e-47
3.6845124622665e-46
1.6052377565164e-45
6.2569544847709e-45
3.5356002378308e-44
6.6030453298006e-43
1.2111345905334e-41
9.8669670102666e-41
1.3299842003387e-40
1.6704513097494e-40
2.5076577492429e-40
2.1807340946832e-40
1.9534140572251e-40
1.3065654656779e-40
6.3952829530853e-41
1.4981270071503e-41
2.3794481328263e-42
1.4233078199048e-43
2.0778170508854e-44
4.1242492436433e-45
1.4210555889374e-45
1.468715994353e-46
6.8683147993915e-47
1.1338803245748e-47
2.4699320530016e-48
3.0665284193013e-49
9.4039515484649e-50
2.1060898156637e-50
1.7230000384508e-51
4.2029931206579e-52
6.1504897151283e-53
2.2915744545735e-53
2.3012768763862e-54
3.9986446890191e-55
1.6413491017716e-55
1.6494082498358e-56
6.1810766763169e-57
6.3673276078414e-58
1.1085794414148e-58
4.4860102623487e-59
4.5608688631213e-60
1.6115008217233e-60
1.7359786350902e-61
3.0483865516721e-62
1.2189697802001e-62
1.2495603357073e-63
4.3600051510857e-64
4.7431965864759e-65
8.2907414952495e-66
4.0051216397683e-66
4.2075059753609e-67
1.2314946694617e-67
1.3263545473192e-68
2.3408030265036e-69
8.5394722664592e-70
9.5103899305654e-71
1.1417520965141e-71
3.0658579694958e-72
6.0014830640416e-73
1.1205162244563e-73
5.1585438400536e-74
1.3874711654068e-74
3.1116035933313e-75
5.6270218577382e-76
4.4710350528402e-77
7.3988207740033e-78
3.2791761665317e-78
7.8453800451112e-79
6.5455169944937e-80
1.0953904040893e-80
4.7947792865947e-81
1.2707610370561e-81
2.8174358866659e-82
5.3515370681161e-83
4.1487434724499e-84
1.6142211217134e-84
3.6418143248013e-85
1.4289755540068e-85
0
0
0
0
0
0
0
0
0
8.1863648579953e-35
0
0
3.3251407211505e-34
-1.0379955610166e-46
-2.138211217138e-51
1.3363823550461e-52
0
2.79532943484e-36
1.1180169041542e-49
4.6984697886505e-49
2.6310915056378e-48
1.0609172011563e-47
1.8333925673485e-38
4.0790835839106e-46
1.2400149437474e-45
4.9600631108803e-45
2.7118713195834e-44
4.5795048425144e-43
2.3920000583748e-42
4.1573953315578e-42
7.3013555948761e-40
1.7255434122545e-40
2.1273867456956e-40
9.8797999590993e-40
2.0162410553513e-40
1.7209743333071e-39
3.5534214755939e-41
1.0810959374012e-41
5.5666244666871e-42
4.2742319146355e-43
1.3123580523818e-43
1.6358229084826e-44
3.5251481198883e-45
8.7698014154015e-46
6.8455987926075e-46
9.5726640547158e-47
8.8791583124649e-47
1.3892447534868e-48
3.7182712586273e-47
5.594972265704e-49
1.1382171915001e-50
2.7481185177775e-49
4.2109198081798e-52
5.2878520473751e-50
1.608787724239e-53
3.0262987838124e-54
5.6843008835904e-52
1.1709495875056e-55
4.3956352700212e-53
4.4839242515607e-57
1.2247798686031e-57
6.9074097449536e-55
3.2539170638374e-59
5.8663649026203e-56
1.2360507402686e-60
2.3271159122915e-61
9.1174533151497e-58
8.9545322969795e-63
7.2961591830896e-59
3.3930126267616e-64
6.3808682694475e-65
3.7038657997832e-60
2.4166801856873e-64
2.1549577065773e-61
9.5297815511411e-68
1.7943137353914e-68
9.4720862094327e-63
6.2870168537625e-67
1.2539210736474e-70
2.0790249543446e-68
4.5865467810426e-72
2.038406337101e-67
1.8894842025008e-66
3.6172845058627e-67
4.8577998496065e-68
1.4653290251322e-67
9.2715996799145e-72
5.7195932765269e-77
1.4805749879274e-70
8.8840866464815e-71
4.5498173671205e-79
8.6112052478526e-73
6.8634217743448e-72
9.0331381826787e-73
1.0644301015674e-73
3.1653481194784e-73
1.9987599058502e-77
4.0890837988698e-74
1.4872826003575e-75
2.8596360330351e-75
0
0
0
0
0
0
0
3.8007484482218e-23
1.6169616856773e-21
3.2623845921844e-20
4.0683715008306e-19
3.4261967162595e-18
2.0587739679502e-17
1.236849795908e-16
1.0159235384362e-15
7.6808488437504e-15
4.1576353105704e-14
1.6135449801099e-13
4.2171624403611e-13
7.8393553279234e-13
1.2335766838955e-12
1.8661383566198e-12
2.7541712082868e-12
3.5764023851471e-12
3.7666660919744e-12
3.6710141756312e-12
3.3312967292255e-12
2.6548585781664e-12
1.720277484605e-12
8.3021728898083e-13
2.7824963273708e-13
6.8848436926348e-14
1.6276181440569e-14
4.5960175812024e-15
1.5256711082788e-15
5.4065026649931e-16
1.9276315036317e-16
6.7679598953052e-17
2.3321184134521e-17
7.8784200711443e-18
2.5879794758119e-18
8.1498718733745e-19
2.4335363638207e-19
6.8942874444733e-20
1.876607848976e-20
4.9899269247576e-21
1.3111235647304e-21
3.4167484811308e-22
8.8231774394557e-23
2.2547926198914e-23
5.7020588450417e-24
1.4282137961193e-24
3.5469825622323e-25
8.7415735682947e-26
2.1391149671907e-26
5.1997983784584e-27
1.2560943619361e-27
3.0165230773392e-28
7.204297363746e-29
1.7116466921267e-29
4.046665673454e-30
9.522543338751e-31
2.2309153812806e-31
5.2045284678589e-32
1.209299742915e-32
2.7991117279387e-33
6.4552584584944e-34
1.4834818229315e-34
3.397733102694e-35
7.7569971465514e-36
1.765429209137e-36
4.0059976298596e-37
9.0640631614536e-38
2.0451831249194e-38
4.6023643546427e-39
1.0330213693531e-39
2.3128892299192e-40
5.1659855683993e-41
1.1511662184724e-41
2.5594181839301e-42
5.6779693718141e-43
1.2569618372881e-43
2.776870537095e-44
6.1223700493655e-45
1.3472202101739e-45
2.9589401546139e-46
6.4868637757861e-47
1.4195666548931e-47
3.1011278917152e-48
6.7631031337719e-49
1.4724939544155e-49
3.2008118967721e-50
6.9467727646615e-51
1.5053554166704e-51
3.2571761054032e-52
7.0378202184087e-53
1.5171477149409e-53
3.3026099412415e-54
6.2921468092081e-55
2.4402835218278e-55
0
0
0
0
0
0
3.5262418399853e-23
2.1394670968518e-21
5.9421993441053e-20
1.036021127932e-18
1.2640887335024e-17
1.1249662106155e-16
7.1431148818697e-16
3.4105351688931e-15
1.4977965708258e-14
8.5795570644096e-14
7.703328770551e-13
4.4986788594442e-12
1.5648482496883e-11
2.8853912788223e-11
3.4883612614129e-11
4.6999689866284e-11
6.9896859660027e-11
9.3318350206562e-11
9.8703818989687e-11
9.530264781784e-11
8.3587509840012e-11
6.151590095809e-11
3.5393359406714e-11
1.5105632028007e-11
4.7282976548922e-12
1.2605565802337e-12
3.683860473328e-13
1.2752706908875e-13
4.843811355145e-14
1.8785133747114e-14
7.197706254159e-15
2.7021361504379e-15
9.9549002050595e-16
3.60025683726e-16
1.2689918350186e-16
4.2976586280816e-17
1.3779547151343e-17
4.1542474551519e-18
1.1849004612024e-18
3.2504971571188e-19
8.7271913035706e-20
2.3172310412098e-20
6.0998096341188e-21
1.5899364368596e-21
4.0989250278766e-22
1.0453747295084e-22
2.6401338210641e-23
6.6099651599421e-24
1.641887925647e-24
4.0486360957751e-25
9.9150745640435e-26
2.4126160579571e-26
5.8352036130161e-27
1.4033151808222e-27
3.3568053569726e-28
7.9890527028272e-29
1.8922452675403e-29
4.461465155884e-30
1.0473498149214e-30
2.4485485096832e-31
5.7017739637941e-32
1.3227296834036e-32
3.057468605938e-33
7.0428389227906e-34
1.6169214621696e-34
3.7003436365222e-35
8.4422853466257e-36
1.920403007554e-36
4.3559772942719e-37
9.853339164641e-38
2.2229362829863e-38
5.0021322765842e-39
1.1228055789663e-39
2.5142580424384e-40
5.6169925989436e-41
1.2520385108565e-41
2.7847158459528e-42
6.1804700668483e-43
1.3688827190574e-43
3.0258019581593e-44
6.6752648906963e-45
1.4698511665008e-45
3.230554964287e-46
7.087627903229e-47
1.5522613850451e-47
3.3938158663545e-48
7.4078069361452e-49
1.6143099351395e-49
3.5123239540493e-50
7.6306405061092e-51
1.653858345824e-51
3.6184263648559e-52
6.9473694966843e-53
2.6933400220481e-53
0
0
0
0
0
1.5173243157477e-23
1.2875931926775e-21
4.5009675089495e-20
9.4129757176428e-19
1.3781899318773e-17
1.532951687011e-16
1.3399031381476e-15
9.2249804451486e-15
4.7684991554992e-14
1.7902599915028e-13
6.0828329087221e-13
2.7213543038662e-12
2.1134602770396e-11
2.6593377698752e-10
9.691977700668e-10
1.3830393347663e-09
1.6945241376718e-09
2.1289493996316e-09
2.4630267660787e-09
2.4773390551451e-09
2.3520881816464e-09
1.9855113568796e-09
1.3267562177115e-09
6.1255285322327e-10
1.7080081399893e-10
3.3398401692043e-11
8.6729610896824e-12
3.2859471922887e-12
1.4336990893304e-12
6.3192384449769e-13
2.7146269245404e-13
1.1330245662604e-13
4.6120729376959e-14
1.8395171512954e-14
7.2045262676774e-15
2.7586300443587e-15
1.0189959680593e-15
3.5632658216428e-16
1.1615881551453e-16
3.5218977038611e-17
1.0069134054254e-17
2.7762017820405e-18
7.5209638944731e-19
2.0185786933374e-19
5.3692695849517e-20
1.4127478925852e-20
3.6740510135011e-21
9.4497379089699e-22
2.4065397739625e-22
6.0746383639913e-23
1.5210119958784e-23
3.7798525922509e-24
9.3272662734896e-25
2.2864472854613e-25
5.570196371993e-26
1.3490910098189e-26
3.2495001869227e-27
7.7862047949864e-28
1.8564646810907e-28
4.4056173577035e-29
1.0408420026482e-29
2.4485651010333e-30
5.7368189987217e-31
1.3388775221706e-31
3.1130973734953e-32
7.2126290448842e-33
1.6653512396412e-33
3.8325482951333e-34
8.7921158841768e-35
2.0108244665848e-35
4.5854060597364e-36
1.0426759563919e-36
2.3644560828259e-37
5.3476562836166e-38
1.2063792174143e-38
2.7147389487857e-39
6.0943867280109e-40
1.3649657099052e-40
3.05023800125e-41
6.8013466614518e-42
1.5133271581917e-42
3.3602662517584e-43
7.4463336936935e-44
1.646884268844e-44
3.6354503522009e-45
8.0103162951636e-46
1.7618066185053e-46
3.8681547987543e-47
8.4782411810349e-48
1.8551536456661e-48
4.0529825873681e-49
8.8331444645256e-50
1.9426435384178e-50
3.7585267694179e-51
1.4574154795481e-51
0
0
0
0
0
3.3422173499192e-22
1.9349510827218e-20
5.3152381505214e-19
9.3032000696232e-18
1.1750005538156e-16
1.1531762357798e-15
9.244678002905e-15
6.1719266754885e-14
3.4022391583023e-13
1.4280345745559e-12
4.2361507026084e-12
1.0576957286382e-11
3.3735984733676e-11
2.180273289297e-10
4.650527402002e-09
8.1892939621607e-08
8.9949471335376e-08
7.6164511130479e-08
6.3655808448202e-08
5.6493644254349e-08
4.9868895875601e-08
4.0191054293757e-08
2.6346868125303e-08
1.1912139635831e-08
2.9195304086734e-09
2.9899982772915e-10
2.3519754670729e-11
1.1181209115018e-11
7.3738338245956e-12
4.0988319020551e-12
2.0184650451669e-12
9.4949012515763e-13
4.3299867022537e-13
1.9204086603559e-13
8.3104237438832e-14
3.5066004904705e-14
1.4288393973308e-14
5.5184524429286e-15
1.9793068378356e-15
6.5176797618479e-16
1.9815324029873e-16
5.6835091537443e-17
1.5784177245726e-17
4.319673085413e-18
1.171689030475e-18
3.1470369282029e-19
8.3543354420516e-20
2.1911424922129e-20
5.6825777549793e-21
1.4589990580235e-21
3.7122586355285e-22
9.3673409919732e-23
2.3455077952736e-23
5.8306059811236e-24
1.4396018654822e-24
3.5318493485953e-25
8.6130140372458e-26
2.0885628708077e-26
5.0374611707251e-27
1.2088381271329e-27
2.8868693366134e-28
6.8626185916557e-29
1.6242374929495e-29
3.8281781944213e-30
8.9866392913111e-31
2.101545937855e-31
4.8964978490642e-32
1.1368453007335e-32
2.6305471132074e-33
6.0670231477201e-34
1.3948982001723e-34
3.1973922022499e-35
7.3077243356493e-36
1.6655009019231e-36
3.7855170817543e-37
8.5814770116873e-38
1.9404039097344e-38
4.3767357472889e-39
9.8484893239375e-40
2.2109624328565e-40
4.9523958372204e-41
1.1068784117515e-41
2.4686643916411e-42
5.4944911931572e-43
1.2204521252055e-43
2.7056105918647e-44
5.9866450853825e-45
1.3221990113651e-45
2.9149152502447e-46
6.4148742733099e-47
1.4093936601861e-47
3.0888397474014e-48
6.8289974938761e-49
1.3312021733014e-49
5.1656144141106e-50
0
0
0
0
1.6900404889157e-36
3.4279892190185e-21
1.6924466729302e-19
4.083110152827e-18
6.3864399907781e-17
7.2648165429052e-16
6.4153546303361e-15
4.6206227567161e-14
2.8123040460018e-13
1.4813174488955e-12
6.5415321535638e-12
2.2267598505515e-11
4.852326375132e-11
7.9085727583749e-11
2.4630774531884e-10
3.927357499721e-09
6.6323039641369e-08
1.6906344866442e-06
2.3306385825415e-06
1.8049647748372e-06
1.2730296844189e-06
9.5110037136849e-07
7.0347344740056e-07
4.5484384571634e-07
2.1585125032525e-07
5.9070277410893e-08
6.498897205563e-09
2.6415556985663e-10
4.2878160766015e-11
1.6289018531143e-11
1.1318094031729e-11
8.0056889654144e-12
4.6071036890611e-12
2.4162421373453e-12
1.2196270213663e-12
5.9716415213867e-13
2.8379814376363e-13
1.3001484298638e-13
5.6475866636084e-14
2.2750907657783e-14
8.3407766160481e-15
2.7678372067826e-15
8.4308385362146e-16
2.4255586280627e-16
6.7822177971536e-17
1.87338088296e-17
5.1304566296662e-18
1.3902820456158e-18
3.7210059136445e-19
9.8355894942989e-20
2.5703120846717e-20
6.6489937582571e-21
1.7042633370818e-21
4.3315030884234e-22
1.0922166487854e-22
2.7337943857866e-23
6.795326044682e-24
1.6781266800651e-24
4.1188302845242e-25
1.0050932149162e-25
2.4392526634548e-26
5.8890880903332e-27
1.4147918575398e-27
3.3829340239229e-28
8.052784062308e-29
1.9087011083182e-29
4.5055771922116e-30
1.0593977112197e-30
2.4816121220693e-31
5.7921591282434e-32
1.3472242922421e-32
3.1231250400327e-33
7.2167643698546e-34
1.6624544016164e-34
3.8181976957537e-35
8.7440610136916e-36
1.9968993233301e-36
4.5480704138342e-37
1.0331511379725e-37
2.3410024397925e-38
5.2914539619557e-39
1.1932060109372e-39
2.6844394608977e-40
6.0258539492131e-41
1.349702478589e-41
3.0167429541016e-42
6.7289071995804e-43
1.4978929035655e-43
3.3278973969668e-44
7.3796229043957e-45
1.6333989452462e-45
3.6090545510895e-46
7.9540060760337e-47
1.7678471821482e-47
3.4716643900434e-48
1.3486521360961e-48
0
0
0
0
-4.9075994504572e-49
2.1678861024892e-20
9.8874596435658e-19
2.2165334930973e-17
3.2319113735739e-16
3.4261350258057e-15
2.8026303670972e-14
1.8455521717717e-13
1.0143536316126e-12
4.8372074074227e-12
2.0393244532839e-11
7.2994176261875e-11
1.9345596944109e-10
2.7988233524096e-10
4.313946683705e-10
2.8135050964571e-09
4.7300350585196e-08
7.9967501208175e-07
1.3243283363815e-05
3.5041525320789e-05
2.6350328802566e-05
1.7446796007739e-05
1.21080686344e-05
7.693092861161e-06
3.8859163643662e-06
1.2424532479111e-06
1.8167437385041e-07
8.0439866698605e-09
5.9142311916835e-10
1.471093550161e-10
3.8241336223511e-11
1.6569139843857e-11
1.1920571957007e-11
8.399444970394e-12
5.0222322109894e-12
2.8126289088252e-12
1.5306218098487e-12
8.0350061680478e-13
4.0012977058158e-13
1.8474261949346e-13
7.7198694519657e-14
2.8719047333325e-14
9.5276519223718e-15
2.8887648515867e-15
8.3100518532746e-16
2.3386523876748e-16
6.5227374307199e-17
1.8032736274859e-17
4.9262240856774e-18
1.3279509205963e-18
3.5344389703361e-19
9.3005071674499e-20
2.4225204717505e-20
6.2516182849424e-21
1.5994708951227e-21
4.0594567663491e-22
1.0225663029449e-22
2.5577090842663e-23
6.3552313446209e-24
1.5692722010147e-24
3.85213978641e-25
9.4032723104297e-26
2.2832509833642e-26
5.5161991539549e-27
1.3263024754537e-27
3.1743737966316e-28
7.5644182877108e-29
1.7950541906145e-29
4.2426853169845e-30
9.9893368773374e-31
2.3433201214622e-31
5.4775693997838e-32
1.2760381947422e-32
2.9628766670495e-33
6.8578641491786e-34
1.5824785967771e-34
3.6408765353668e-35
8.3528775504617e-36
1.911036086243e-36
4.3605637855618e-37
9.9241594869139e-38
2.2529764002324e-38
5.1022778826292e-39
1.1527821790645e-39
2.5985776468577e-40
5.8446384488118e-41
1.3117165796767e-41
2.9377067308437e-42
6.5657969160487e-43
1.4645379553522e-43
3.2603802166446e-44
7.245026069018e-45
1.6057384475976e-45
3.587964928259e-46
7.0976141976979e-47
2.7612223591663e-47
0
0
0
0
-2.0880974297595e-54
9.804414160883e-20
4.2705423511436e-18
9.0827049454126e-17
1.2533486913258e-15
1.258206152691e-14
9.7565734540734e-14
6.0431507017902e-13
3.0625672442999e-12
1.3140808222057e-11
5.0248660188953e-11
1.7790281010544e-10
5.50560458093e-10
1.2302896170762e-09
1.9093879351735e-09
4.7996797216153e-09
3.6682046492042e-08
4.101552540475e-07
6.6273002647972e-06
6.7113251464494e-05
0.00034114039859809
0.00028017764784324
0.00019305378079756
0.00012986167996415
7.1531355942802e-05
2.7471506557694e-05
5.3831912445165e-06
3.4813250784064e-07
1.4813927601804e-08
2.5465003920673e-09
5.7680645473867e-10
1.2320707380516e-10
3.3024117582426e-11
1.6731347582675e-11
1.2698003300694e-11
9.2260033571861e-12
5.8800004837664e-12
3.5464005741217e-12
2.041907447498e-12
1.0940097260586e-12
5.2930628610284e-13
2.2507212092164e-13
8.3149443847007e-14
2.7124159674993e-14
8.1420857906636e-15
2.3499907833995e-15
6.6868119109861e-16
1.8860407218239e-16
5.259422075539e-17
1.4467219183622e-17
3.925061581644e-18
1.0515096603852e-18
2.7852198545698e-19
7.3022452317226e-20
1.8965523239804e-20
4.8828865136604e-21
1.2469404099948e-21
3.1600964987495e-22
7.9514569338344e-23
1.9873321694341e-23
4.9355886399251e-24
1.2184386200603e-24
2.9909027815137e-25
7.3023163598223e-26
1.773756245524e-26
4.2875391484683e-27
1.0315748956502e-27
2.4709399072545e-28
5.8935365933676e-29
1.3999736055939e-29
3.3125778206349e-30
7.8087617656046e-31
1.8341344086113e-31
4.2931108108711e-32
1.0015217655241e-32
2.3288852808729e-33
5.3986379540285e-34
1.2477135559082e-34
2.8753039040977e-35
6.6074210620626e-36
1.514253448288e-36
3.4611503309627e-37
7.8910120426026e-38
1.7946038212617e-38
4.0715498473485e-39
9.2158697903239e-40
2.0812631943797e-40
4.6898520416105e-41
1.0545297737444e-41
2.3661987716308e-42
5.2985621995622e-43
1.184211924432e-43
2.6395815021267e-44
5.9299895177004e-45
1.1816310922869e-45
4.6049677578859e-46
0
0
0
0
-4.2168791772922e-79
3.3876393823876e-19
1.437947734442e-17
2.9723389336868e-16
3.9696587949839e-15
3.8340605835339e-14
2.8248443948251e-13
1.6517150901775e-12
7.8755108624788e-12
3.1178272268916e-11
1.0666648127419e-10
3.5324649448041e-10
1.3224919231452e-09
5.0519345493093e-09
1.4340655308549e-08
3.2063651719511e-08
9.151763179998e-08
5.0929490531184e-07
4.3005550161295e-06
4.7691570485108e-05
0.00038176958978945
0.0025106092621363
0.0025322179730646
0.0019875091522226
0.0012823490210081
0.00059838264069538
0.00015124888148519
1.325501766879e-05
4.2608831213161e-07
5.5888105708592e-08
1.3352490196748e-08
2.5318530463423e-09
4.9363935525531e-10
1.0801977358381e-10
3.038025178202e-11
1.8835317764876e-11
1.5648450749797e-11
1.1868574212971e-11
7.9643559634749e-12
4.9339130601608e-12
2.7627738226607e-12
1.3459405027586e-12
5.5898639378491e-13
1.9993198477483e-13
6.4020784700764e-14
1.925148154326e-14
5.62706376629e-15
1.6219620408752e-15
4.6190398243978e-16
1.2975038424046e-16
3.5923263578981e-17
9.8089860449103e-18
2.6448439013991e-18
7.0509056421138e-19
1.8603670733451e-19
4.8619580490674e-20
1.2594358523229e-20
3.2355744893366e-21
8.2483816226049e-22
2.0875463204346e-22
5.2473567068266e-23
1.3105416895818e-23
3.2532668583873e-24
8.029456886477e-25
1.9709576250821e-25
4.8129288590577e-26
1.169471540856e-26
2.8282423126201e-27
6.8089720998909e-28
1.6321837420409e-28
3.8963474022749e-29
9.2644704143854e-30
2.194452099119e-30
5.1789060098035e-31
1.2179127190886e-31
2.8544117735974e-32
6.667946993123e-33
1.5527171611922e-33
3.6046580152058e-34
8.3435614549593e-35
1.9257341260341e-35
4.4323921807533e-36
1.0174533411764e-36
2.3294899934821e-37
5.319992201792e-38
1.2119844807837e-38
2.7545433450698e-39
6.2459396343441e-40
1.4130884453987e-40
3.1900021215412e-41
7.1859796821018e-42
1.61549302867e-42
3.6218333808886e-43
8.181644949439e-44
1.6422990524065e-44
6.4132509747659e-45
0
0
0
0
8.1566305849981e-57
8.8706800710794e-19
3.7433946497854e-17
7.645270566911e-16
1.0032593497159e-14
9.4366010531256e-14
6.8419657069072e-13
3.9232590445789e-12
1.7883469862752e-11
6.6283994356528e-11
2.1191605112348e-10
6.8680280869058e-10
3.012175839091e-09
1.6975737476493e-08
8.0879649958394e-08
2.5287611704155e-07
6.4844133918251e-07
1.9488503803694e-06
8.731736941025e-06
5.84972340972e-05
0.00044924085068114
0.003331498702001
0.017562589715425
0.030993760777456
0.026463628505185
0.01442914074051
0.0040015296200805
0.00029830619995251
9.0998550062528e-06
1.4041236419943e-06
3.2269596248143e-07
6.0703330292478e-08
1.1431868998193e-08
2.1715038532369e-09
4.2610951593169e-10
9.7671056479257e-11
3.0083390261537e-11
2.5877874079114e-11
2.3544936070304e-11
1.8071809216281e-11
1.1466458358204e-11
6.225300291859e-12
2.8935242212201e-12
1.1536443772753e-12
4.0392634936866e-13
1.2909562181678e-13
3.919304752794e-14
1.160006969853e-14
3.380086762715e-15
9.7072316530116e-16
2.7458271414853e-16
7.6514902672475e-17
2.102690719779e-17
5.7060141231404e-18
1.5308530080685e-18
4.0644129262628e-19
1.0687386874642e-19
2.7851654141557e-20
7.197772079141e-21
1.8456391969291e-21
4.6979328687998e-22
1.1875898414557e-22
2.9826050581253e-23
7.4447248827629e-24
1.8474188429499e-24
4.559046015646e-25
1.1191592503694e-25
2.7335504008712e-26
6.6447577975676e-27
1.6078302635469e-27
3.8734290823489e-28
9.2923326022506e-29
2.2202482117018e-29
5.2843910701145e-30
1.2530532610738e-30
2.9606408297373e-31
6.971083211513e-32
1.6359367125377e-32
3.826790111648e-33
8.9238458477012e-34
2.0747389967047e-34
4.809624399464e-35
1.111821769343e-35
2.5631466570227e-36
5.8933472257824e-37
1.3515593310837e-37
3.0918987294772e-38
7.05607934581e-39
1.6064944214879e-39
3.6492269670734e-40
8.2709114847054e-41
1.8706306423407e-41
4.2188647529386e-42
9.5844481907527e-43
1.938243981655e-43
7.586549731961e-44
0
0
0
6.5979231682819e-50
1.5180440691112e-34
1.5399684621445e-18
6.5994728418203e-17
1.3523881552926e-15
1.7683515554857e-14
1.6527051166251e-13
1.1748217753362e-12
6.5536190262583e-12
2.968208532787e-11
1.1309693946211e-10
3.7229487486082e-10
1.4060227853484e-09
7.4785939946188e-09
4.6746267039363e-08
2.8694773847014e-07
1.4032191223859e-06
4.6179057230076e-06
1.2876775487082e-05
4.1591531966064e-05
0.00017962381027851
0.0009909378356615
0.0062241643078307
0.039384539382468
0.20324541740253
0.42871692981123
0.32961730862223
0.098000003167962
0.0075225627933279
0.00021529564254551
3.6568412201202e-05
7.7662370937966e-06
1.4594293088589e-06
2.7418875235353e-07
5.1547078537142e-08
9.7168630478403e-09
1.8566054507767e-09
3.7126388486582e-10
9.1397848588159e-11
5.0725115239396e-11
4.6693572698583e-11
3.7410469993181e-11
2.2947644925023e-11
1.1866517479221e-11
5.2937592722517e-12
2.0476917417755e-12
7.0691283463742e-13
2.2630269960575e-13
6.9406577505579e-14
2.0776268239602e-14
6.110911318976e-15
1.7682294915872e-15
5.0348131048815e-16
1.4119204081723e-16
3.9046681162439e-17
1.066303481593e-17
2.8786929582091e-18
7.6901641779201e-19
2.0344403412383e-19
5.3336150830011e-20
1.3865314428772e-20
3.5760568625028e-21
9.1549562460619e-22
2.3274181913842e-22
5.8779999897235e-23
1.4752870759769e-23
3.6809188553993e-24
9.1326648040327e-25
2.2538162015408e-25
5.5338560487021e-26
1.3521531145947e-26
3.2885564965044e-27
7.9625505035163e-28
1.9197582357163e-28
4.6095958970397e-29
1.1024800275623e-29
2.6268499470083e-30
6.2361631643e-31
1.4752805728903e-31
3.4782483909538e-32
8.1738396194045e-33
1.9147806766502e-33
4.4718226104879e-34
1.0412750456704e-34
2.4176988565386e-35
5.5980038507789e-36
1.2926914270339e-36
2.9772949920091e-37
6.8398588214267e-38
1.5674801455502e-38
3.5835762412307e-39
8.1736796156032e-40
1.8601885393764e-40
4.2212012117372e-41
9.6461214610438e-42
1.965603159187e-42
7.7139857840845e-43
0
0
0
8.4974658433867e-49
2.7266410179565e-34
1.6691613767886e-18
7.2650449330878e-17
1.5050885284078e-15
1.9813273921174e-14
1.8610727969996e-13
1.3144967738103e-12
7.2532009920594e-12
3.2077516316478e-11
1.175723947205e-10
4.4081599732839e-10
2.2910347336704e-09
1.5619775419127e-08
1.1137809452575e-07
7.4663990944655e-07
4.5382097648827e-06
2.3104869774052e-05
8.3277355093918e-05
0.00025341640625139
0.00087780371033248
0.0038224587814281
0.020005628443445
0.12643187079847
0.59548781212295
0.92007532055035
0.90450037362355
0.73253357503698
0.25168595350083
0.021844141224938
0.00081482354163401
0.00014970609409987
3.0708344811139e-05
5.7953593100549e-06
1.0934828476802e-06
2.0634013171328e-07
3.8983423922433e-08
7.4087572544935e-09
1.4405665368061e-09
3.2128704867845e-10
9.9856608279827e-11
8.3449144706046e-11
6.6859528423275e-11
4.0201335814751e-11
1.9657837503578e-11
8.3952694879809e-12
3.1656560927797e-12
1.0832253509502e-12
3.4788762533166e-13
1.0764239602871e-13
3.2526125099151e-14
9.6438601544832e-15
2.8095002042108e-15
8.0498363275662e-16
2.2713764322294e-16
6.3205536083694e-17
1.7368006000599e-17
4.7179004711912e-18
1.2680869497171e-18
3.3751359663166e-19
8.9017122708734e-20
2.3278752904438e-20
6.0392729403078e-21
1.5551007924767e-21
3.976218960747e-22
1.0099283972864e-22
2.5490262467445e-23
6.395324613376e-24
1.5954548260945e-24
3.9587538985335e-25
9.7722281041513e-26
2.4004377005804e-26
5.8687039957359e-27
1.4283523624411e-27
3.4613883033603e-28
8.353376825359e-29
2.0078933820979e-29
4.8078576238797e-30
1.1469814318898e-30
2.7265454821196e-31
6.4591443443973e-32
1.5250858588207e-32
3.5893759709037e-33
8.421599682931e-34
1.9699917101695e-34
4.5948281295514e-35
1.0686808075442e-35
2.4787770030459e-36
5.7341974283765e-37
1.3230823652092e-37
3.0451736228859e-38
6.9916014245493e-39
1.6015241898085e-39
3.6575873481245e-40
8.4093935341194e-41
1.7270609419828e-41
6.7981604946745e-42
0
0
0
7.8453669892794e-49
9.1956040837195e-49
1.5660981584885e-18
6.8782159552218e-17
1.4355278523539e-15
1.9011596531195e-14
1.793161389073e-13
1.2700656740345e-12
7.0120187415499e-12
3.0835332992375e-11
1.1290677593614e-10
4.2228182759129e-10
2.3509119206702e-09
1.8798898782718e-08
1.5954579570388e-07
1.310160835146e-06
1.0121443127529e-05
6.5392410230047e-05
0.00035026150158928
0.0014371780716028
0.0048903312374978
0.018517885362352
0.091461399664486
0.46824842439909
0.9016399351487
0.98549430012939
0.99322771840788
0.98334001223553
0.89005253945608
0.4341339656534
0.053206053147957
0.0021631241683047
0.00034765592702282
7.5615419673624e-05
1.4510229464937e-05
2.7818230928229e-06
5.3319856205096e-07
1.0221799014917e-07
1.9660095143067e-08
3.8440330967034e-09
8.0990609010847e-10
2.242553003085e-10
1.4472275931335e-10
1.0412275699309e-10
6.0826897575666e-11
2.8535287794008e-11
1.1698725320153e-11
4.3033019731747e-12
1.4603771627445e-12
4.7038788411515e-13
1.466309686675e-13
4.4650034771468e-14
1.3328040864125e-14
3.9064141737412e-15
1.1259086211867e-15
3.1960462615177e-16
8.9482156418112e-17
2.4740810485656e-17
6.7623863291996e-18
1.8288635698899e-18
4.8977116468618e-19
1.2996616093153e-19
3.41942800773e-20
8.9247321548165e-21
2.3118715103272e-21
5.9462950544149e-22
1.5191935231902e-22
3.8567169095121e-23
9.7319765344657e-24
2.4416966978104e-24
6.0926750594083e-25
1.512373056361e-25
3.7354692294597e-26
9.1824804787608e-27
2.2469330977551e-27
5.4741440294773e-28
1.3280472035849e-28
3.208871855616e-29
7.7232252871366e-30
1.8518863390464e-30
4.4244302986542e-31
1.0533737576887e-31
2.4994319163613e-32
5.9112931649475e-33
1.3936447711613e-33
3.2756211245572e-34
7.6762396148325e-35
1.7937250091538e-35
4.179775162108e-36
9.7134855455631e-37
2.2514185181019e-37
5.205072003079e-38
1.2004396288322e-38
2.7600696611033e-39
6.3867021057623e-40
1.3223393697824e-40
5.2228460641507e-41
0
0
0
9.8049432082215e-49
1.1502849440882e-48
1.1960290275874e-18
5.3923279885774e-17
1.1529853718783e-15
1.5593769363096e-14
1.4944598613137e-13
1.073569367233e-12
5.9780130499907e-12
2.6276637065961e-11
9.575424557923e-11
3.530876937216e-10
2.0325923013002e-09
1.7006790951368e-08
1.5169915966314e-07
1.3291671058445e-06
1.1460350455449e-05
9.7793066841195e-05
0.00079224255004301
0.0048984323180658
0.023143424148178
0.10301718881075
0.45250479319013
0.87329974218434
0.97953090519747
0.99370152098685
0.99607608198577
0.99650228598154
0.99460669778391
0.93041755129709
0.50892662457075
0.069757626557035
0.0035955486892931
0.00061002132105824
0.00013199892863374
2.5892122354596e-05
5.0729345752518e-06
9.9124236801702e-07
1.9362592925274e-07
3.7877181692448e-08
7.4958681561663e-09
1.572059888948e-09
4.1884359011082e-10
2.3157964381059e-10
1.5084726060003e-10
8.2107047209705e-11
3.6442425147472e-11
1.4320238605848e-11
5.1412775212232e-12
1.7318568561241e-12
5.5929289493788e-13
1.7539166792811e-13
5.3735130301355e-14
1.613132915757e-14
4.7546224596617e-15
1.3783569369843e-15
3.9363863364077e-16
1.1089788698003e-16
3.0856542408594e-17
8.4879534741145e-18
2.3102774675326e-18
6.2266871476891e-19
1.6629124056254e-19
4.4030795326259e-20
1.1565026729581e-20
3.0147033208736e-21
7.8025267144573e-22
2.0057941822742e-22
5.1233090490036e-23
1.3006706942834e-23
3.2829535504328e-24
8.2406305216469e-25
2.0576102626861e-25
5.1117934585188e-26
1.2638171612917e-26
3.1101597281146e-27
7.6199032461658e-28
1.8589170811838e-28
4.5163231067447e-29
1.0929256673472e-29
2.6347478256202e-30
6.3283249832968e-31
1.5145892679082e-31
3.6125123152439e-32
8.5877869804922e-33
2.0349657837585e-33
4.8070748403601e-34
1.1321248172681e-34
2.6585021380174e-35
6.2251044676132e-36
1.4536476571898e-36
3.3853769375789e-37
7.8640274116286e-38
1.8209886097476e-38
4.2423956430207e-39
8.8582363919466e-40
3.5124359236193e-40
0
0
0
2.4065875989952e-48
2.3565432353294e-48
5.6923011710015e-19
2.7376195096835e-17
6.2252783054698e-16
8.8819317158696e-15
8.8917845025097e-14
6.639170565296e-13
3.8081279962304e-12
1.7113900042179e-11
6.2694181859022e-11
2.2118001285257e-10
1.210464920694e-09
1.0786212362008e-08
1.0628685328663e-07
1.0411064579081e-06
9.7485925592418e-06
9.0366327882512e-05
0.00078639719615957
0.0071672843849615
0.068749537532228
0.43402694481833
0.88124439811198
0.98183986723969