/*--------------------------------*- C++ -*----------------------------------*\
  =========                 |
  \\      /  F ield         | OpenFOAM: The Open Source CFD Toolbox
   \\    /   O peration     | Website:  https://openfoam.org
    \\  /    A nd           | Version:  7
     \\/     M anipulation  |
\*---------------------------------------------------------------------------*/
FoamFile
{
    version     2.0;
    format      ascii;
    class       volScalarField;
    location    "2.3";
    object      alpha.water;
}
// * * * * * * * * * * * * * * * * * * * * * * * * * * * * * * * * * * * * * //

dimensions      [0 0 0 0 0 0 0];

internalField   nonuniform List<scalar> 
6000
(
0
0
0
0
0
0
0
0
0
0
0
0
0
0
0
0
0
0
0
0
0
0
0
0
0
0
0
0
0
0
0
0
0
0
0
0
0
0
0
0
0
0
0
0
0
0
0
0
0
0
0
0
0
0
0
0
0
0
0
0
0
0
0
0
0
0
0
0
0
0
0
0
0
0
0
0
0
0
0
0
0
0
0
0
0
0
0
0
0
0
0
0
0
0
0
0
0
0
0
0
0
0
0
0
0
0
0
0
0
0
0
0
0
0
0
0
0
0
0
4.2431949732451e-203
6.0992389564911e-203
9.6666058003594e-203
3.1465436447095e-205
0
1.3925485724109e-183
2.1190696825016e-183
3.9948580191499e-217
-1.5106885884038e-281
0
4.1376406923229e-185
6.5668714630002e-185
0
8.1382683590032e-186
9.017256190529e-186
7.3900151097886e-186
5.2708741393082e-186
-9.8202574047045e-272
2.8887018070351e-223
1.1128334606612e-187
6.4900908824266e-188
1.1206054070654e-225
6.3745473919419e-189
2.810100841467e-241
4.3992310149025e-190
6.9770364657682e-206
4.3534877571321e-191
1.9986653847354e-191
4.5786801806606e-206
1.5925275435755e-192
3.3249939407185e-206
1.2172068765798e-193
4.9284909904801e-194
2.263911089566e-206
3.5068693117097e-195
2.9455512731238e-206
4.9985115388863e-206
4.3982108309836e-197
5.5167043053883e-206
2.9486971667682e-198
9.7948329402812e-206
1.9257449515005e-199
7.4204926741411e-205
9.9269204446267e-201
1.1480617317989e-205
5.6706369624819e-202
1.7561124418822e-202
2.961358559399e-204
1.0579750987233e-203
4.0437194818037e-204
1.0907352237206e-204
3.9602820869602e-205
9.8987875100298e-206
3.5801173012134e-206
9.0707124884584e-207
2.5688056377225e-207
7.1876022520592e-208
2.3943610807561e-208
6.9974314303817e-209
1.6883392493064e-209
5.4306405328179e-210
1.2875834287521e-210
4.0603106672808e-211
9.4751500931349e-212
2.9349254907831e-212
8.008885049953e-213
1.8291199059456e-213
5.5300029319149e-214
1.2474309391146e-214
3.7189380067591e-215
8.2938127673482e-216
2.0705658350249e-216
6.059558032444e-217
1.3310173425349e-217
3.6552642224749e-218
8.195647301669e-219
2.0499798343235e-219
4.9166165464245e-220
1.1762660054439e-220
2.8332862894382e-221
8.9218792647335e-222
0
0
0
0
0
0
0
0
0
0
0
0
0
0
0
0
0
0
0
9.2453791596111e-145
8.8672512389037e-141
5.5368524099246e-147
1.32033704703e-135
1.3582980917153e-118
5.8922315161742e-119
1.7976861086176e-216
2.1814054856361e-117
6.4919197959278e-119
1.761050914342e-134
1.0041132137138e-117
2.5065342376899e-117
6.1428774696938e-117
7.2093021805876e-134
2.8014594051796e-119
2.3865661814582e-118
2.3642909170082e-118
2.0350084702413e-118
0
1.2747387621734e-120
9.5672450965788e-120
0
1.9941745628819e-120
1.3167943109717e-124
0
2.2249594837822e-123
1.3216373395089e-123
3.2370139150653e-123
2.8797866536261e-124
1.3138947464352e-124
6.258935273099e-125
1.523156580115e-125
1.6041077904831e-125
1.3383055649689e-126
2.3842750780525e-127
2.1717560623117e-127
0
1.2624225852276e-128
0
2.0868039832575e-133
7.9516327618256e-147
6.9000990992703e-135
4.5620974577117e-132
6.403146617895e-149
2.2567414267001e-134
0
-5.9666725849601e-152
1.738340395145e-135
0
2.8735075223982e-140
0
3.7202682163065e-139
2.4234225199528e-139
3.2654189420516e-139
2.0660848618586e-143
0
0
1.6154130665054e-142
2.8742078188619e-146
9.3178046778413e-160
2.8483450031749e-145
0
1.153330234681e-145
0
1.9110084051785e-150
1.4024166773068e-147
7.8992550361535e-148
1.0504112001715e-148
-1.7242355030357e-165
7.3357536217579e-153
1.4931068820041e-150
0
8.0329679889623e-152
-2.0565181048877e-156
4.118724079906e-153
2.343280617695e-153
9.8468691131618e-154
4.0917207336294e-154
0
3.1153075248471e-155
2.1067606030836e-155
0
0
0
0
0
0
0
0
0
0
0
0
0
0
0
0
0
-8.3918754228286e-83
-7.8010424091009e-82
-8.0079346156945e-81
-4.19972387787e-80
-1.4984701969166e-79
-4.1485127357204e-79
5.0232685634489e-66
2.7405947190798e-68
3.2998925583428e-69
-3.9755358090102e-77
-1.005382341693e-85
9.9461690891527e-67
8.278477051992e-66
1.0924412790297e-63
1.0237125052028e-62
6.5911230942043e-62
1.9030411647807e-60
8.4903932643592e-60
2.7467182154481e-57
4.5519318467305e-57
3.3207685851263e-57
1.6155265470877e-56
6.3310799805265e-56
3.4138829083396e-55
1.3958567689518e-54
5.2802213686519e-54
1.5432233451625e-53
5.7516733337962e-53
1.5587605969156e-52
3.954214058076e-52
8.5677293340331e-52
2.0510426493945e-51
4.9003045280333e-51
1.0294252964603e-50
2.2028461695719e-50
3.8968682396135e-50
6.9691127319689e-50
7.8847811169804e-50
7.6294540516855e-50
7.7882265066332e-50
7.0070690490104e-50
6.4792942241401e-50
5.226570604778e-50
3.8833668942554e-50
2.4893008102368e-50
1.0065810698907e-50
2.6211724171354e-51
1.7293522499311e-52
1.311323771964e-53
6.5240093292385e-54
5.6259744607191e-55
2.6575569964945e-55
2.3370440088297e-56
3.8006285239726e-57
2.2607326412401e-57
3.0938043401635e-58
1.0987382790403e-58
8.4875926262545e-60
1.3302770682236e-60
6.8147590028257e-61
6.2099843868642e-62
7.4143373573596e-63
1.8941349383402e-63
3.7479638884401e-64
6.9668473448809e-65
3.9616145350659e-65
1.3398337786712e-65
2.116109246867e-66
7.0521528730591e-67
4.6458315801411e-68
6.6159278612037e-69
3.5951531468981e-69
1.2730845822813e-69
8.352787479744e-71
1.199183585546e-71
6.5558927452743e-72
2.1743479744191e-72
5.7704846603004e-73
1.5125497968976e-73
8.7095985122874e-75
3.8172587880893e-75
9.298477141998e-76
4.8385406098695e-76
0
0
0
0
0
0
0
0
0
6.8279929487264e-59
5.2067105535963e-57
9.064468092333e-56
1.523226189665e-54
2.1325836052557e-53
2.5102646234103e-52
6.6601552843718e-51
2.557031373995e-50
2.0560507312141e-49
2.9888381711885e-49
1.2396601211289e-49
0
0
1.7780234849368e-47
-6.1282441439792e-57
-1.1346220218202e-60
-7.9879617364022e-65
-3.7982270983038e-66
-4.7477838071769e-67
6.5282028252097e-67
6.2017926839492e-66
8.2963386383619e-49
1.148157880833e-62
5.0191671990536e-62
2.9744340283763e-48
9.5168636404606e-60
8.056925341357e-41
5.1925743394439e-43
-8.0277839591809e-51
6.3349837105107e-44
-8.2930397351722e-52
2.4266860436415e-55
2.3996824204348e-45
5.8012317787775e-54
1.2717704765859e-53
2.4389777063442e-47
7.5978527077043e-48
2.7257188019112e-48
9.2960005190558e-52
1.5148214407479e-47
5.8651364091574e-45
2.4048673874511e-49
2.3783914589869e-50
3.5576310204113e-50
5.8370281329232e-45
6.0335416769936e-49
8.1554870168007e-50
1.8514117762031e-46
7.4901643350144e-50
3.4852812616906e-47
5.1698632955062e-50
4.1531327082067e-50
1.5887825022719e-48
1.1235929799817e-50
2.7776765915256e-49
4.6659562695248e-52
8.8432603471203e-53
8.0320538709042e-51
3.6259660995777e-54
1.0103053865912e-51
1.48026182984e-55
2.7711255213036e-56
2.0866802789286e-52
1.4419216531875e-56
1.4812251708809e-53
5.1503717453881e-59
9.6221344303261e-60
8.2496154028549e-55
5.705886519143e-59
7.18912326865e-62
1.8950240980872e-60
2.7013942416807e-63
1.6383087467804e-59
1.8925827504957e-58
6.0219535380699e-59
1.2301415725411e-60
4.1224268950015e-59
2.5354723470247e-63
4.7180818084348e-68
4.2241139888547e-62
2.8028748839075e-62
4.686033980257e-70
2.485265310308e-64
2.1848750317038e-63
5.0485194098319e-64
2.359510665489e-65
2.3972399781747e-64
6.2091040380205e-68
3.8149868177092e-65
1.2678522765926e-66
4.1414329078215e-66
0
0
0
0
0
0
0
1.8315998416049e-49
1.8844768500109e-47
9.5014670069491e-46
3.1272810671025e-44
7.5797306818382e-43
1.4456455002465e-41
2.2504313463225e-40
2.9162675335512e-39
3.1987079964222e-38
3.0479173124361e-37
2.6221081892306e-36
2.120320434604e-35
1.6516461095528e-34
1.2413673347291e-33
8.8828200752241e-33
5.9533056866243e-32
3.6901819546023e-31
2.0998585284185e-30
1.0933003206011e-29
5.204577473555e-29
2.2669604521418e-28
9.0476451388597e-28
3.3144215752375e-27
1.1164761926205e-26
3.4646690273247e-26
9.9234040969252e-26
2.6284383478908e-25
6.451907296536e-25
1.4710702372239e-24
3.1234459907136e-24
6.1923890597777e-24
1.1493393293129e-23
2.0015171661241e-23
3.2740859107224e-23
5.025473705143e-23
7.1947267066125e-23
9.4369453957606e-23
1.0957492610232e-22
1.1277568375733e-22
1.1164294469776e-22
1.0715099626729e-22
9.6916867369437e-23
7.9824226918355e-23
5.8184591404799e-23
3.6317810183666e-23
1.8754412529928e-23
7.7942468274192e-24
2.610283554874e-24
7.4351058827768e-25
1.9837415518099e-25
5.3790399994757e-26
1.5229385083897e-26
4.4637426810046e-27
1.3367447831521e-27
4.0613757303165e-28
1.2477835893333e-28
3.8633479019304e-29
1.1995665503408e-29
3.7143441077304e-30
1.1413086701287e-30
3.4690199939965e-31
1.0417316276338e-31
3.0912952896726e-32
9.0728758377833e-33
2.6362079438986e-33
7.5885760773867e-34
2.1652428165137e-34
6.1261604734883e-35
1.7193488745703e-35
4.7884508888014e-36
1.3238647218846e-36
3.6346747313053e-37
9.9130188522676e-38
2.6865706162476e-38
7.2371185539776e-39
1.9383068425386e-39
5.1626822128048e-40
1.3678040418596e-40
3.6054635177501e-41
9.4574518815003e-42
2.4691331500641e-42
6.4172453228123e-43
1.6605742240674e-43
4.2789866038309e-44
1.0981460050719e-44
2.8072137630207e-45
7.1489977780606e-46
1.8138819585913e-46
4.587099591885e-47
1.1534721663526e-47
2.9483909877833e-48
6.2786003864596e-49
3.0746383586281e-49
0
0
0
0
0
0
1.6550079178945e-49
2.5219693632205e-47
1.7175059709777e-45
7.2796681104973e-44
2.1967892385216e-42
5.0911837767679e-41
9.5043521482062e-40
1.4702624325077e-38
1.9199074022618e-37
2.1515122753308e-36
2.0945747531662e-35
1.7930210031492e-34
1.3860650339581e-33
1.0082622118084e-32
7.1027507641825e-32
4.8498147697074e-31
3.1663633653979e-30
1.9499999696886e-29
1.120664132001e-28
5.9607800051324e-28
2.9174425373413e-27
1.3092675860639e-26
5.3777752796512e-26
2.0206239042519e-25
6.9471226797591e-25
2.1875830610866e-24
6.3186271159926e-24
1.6777431295397e-23
4.1073437222389e-23
9.3064551635648e-23
1.9603857744888e-22
3.857012949305e-22
7.1167195389738e-22
1.2349160623593e-21
2.0172742477925e-21
3.0980600245977e-21
4.4482780902464e-21
5.8759203245231e-21
6.9053957175181e-21
7.1714343080139e-21
7.1156106365848e-21
6.866626334443e-21
6.2753603283387e-21
5.2435993330517e-21
3.8996201632152e-21
2.5011640267967e-21
1.3398177646726e-21
5.8392766784145e-22
2.0676229521359e-22
6.2204614634784e-23
1.7326581346965e-23
4.8406570388336e-24
1.403818463704e-24
4.2190599743934e-25
1.3003696509758e-25
4.0804896899454e-26
1.2975596505971e-26
4.1602130501151e-27
1.3362384825311e-27
4.2703650482904e-28
1.3502104076618e-28
4.2093432063761e-29
1.2925835082017e-29
3.9123084667975e-30
1.1688600951209e-30
3.4519732629706e-31
1.0088269044002e-31
2.9196373031155e-32
8.3721076263938e-33
2.3797570939197e-33
6.7083310074635e-34
1.8761585923827e-34
5.2080913607457e-35
1.4355197634644e-35
3.9301966761668e-36
1.0691374333309e-36
2.8906475534675e-37
7.7699390269526e-38
2.0768776662382e-38
5.5217574481492e-39
1.4605352921112e-39
3.8441814698258e-40
1.0070144698419e-40
2.6259419457281e-41
6.8174948846938e-42
1.7624755561022e-42
4.5377858695969e-43
1.1637226505064e-43
2.9729190632883e-44
7.5686616186222e-45
1.9157395372464e-45
4.9282347500988e-46
1.0563441873395e-46
5.2064505631085e-47
0
0
0
0
0
7.474675322366e-50
1.5444293381324e-47
1.3626746006296e-45
7.199354150615e-44
2.6437700737913e-42
7.3206145267812e-41
1.6100905336979e-39
2.9145048375253e-38
4.4391368884431e-37
5.7857732882236e-36
6.5396186702797e-35
6.4619737972064e-34
5.6337604390916e-33
4.3810299441493e-32
3.0735873762349e-31
2.0307814387177e-30
1.3334859042391e-29
8.7278431984158e-29
5.4675297360362e-28
3.1984835333662e-27
1.7387996347306e-26
8.7674212871394e-26
4.0837999779961e-25
1.7480001987575e-24
6.840882707817e-24
2.4376375964791e-23
7.8838740478915e-23
2.3094531720638e-22
6.1224446702032e-22
1.4703515799425e-21
3.2105836333493e-21
6.4205932817113e-21
1.1893598942332e-20
2.0698871309466e-20
3.4309365781914e-20
5.4640874116681e-20
8.3641532623921e-20
1.2192266350599e-19
1.6577726652171e-19
2.0263169470937e-19
2.1677556767083e-19
2.1610729898408e-19
2.10314208787e-19
1.9495235918893e-19
1.6603632658173e-19
1.2636292669773e-19
8.3367277387829e-20
4.6261531702121e-20
2.1063785072588e-20
7.8471285963473e-21
2.4851208570305e-21
7.2284743237691e-22
2.0867284395248e-22
6.2180060136175e-23
1.9205055203677e-23
6.101200378787e-24
1.9795687015107e-24
6.5219796212245e-25
2.167659675568e-25
7.2106259943802e-26
2.3814231515963e-26
7.7585090424699e-27
2.4840964633076e-27
7.8089977422483e-28
2.4128429134514e-28
7.3423502452151e-29
2.2048256447985e-29
6.5434744866984e-30
1.921261698255e-30
5.5849092775425e-31
1.6081959904263e-31
4.5896073648092e-32
1.2987902851412e-32
3.6461423670609e-33
1.0158958416938e-33
2.8103388394407e-34
7.721803648977e-35
2.1080059812784e-35
5.7193741490254e-36
1.5426563567854e-36
4.1375702649795e-37
1.1037748566982e-37
2.9293457685466e-38
7.735800595404e-39
2.0331426185342e-39
5.3190783522401e-40
1.3854281079327e-40
3.5931807831632e-41
9.2808462684224e-42
2.3875731800398e-42
6.1201777439123e-43
1.559524860429e-43
4.0382241840765e-44
8.7129027015081e-45
4.3237274212901e-45
0
0
0
0
0
3.899603474623e-48
5.7453734086324e-46
4.0710383477499e-44
1.8541444831851e-42
6.1329515558992e-41
1.5764331482749e-39
3.2887868860642e-38
5.7396322118241e-37
8.5415240782985e-36
1.1010238853396e-34
1.2426025666394e-33
1.2352343825109e-32
1.0927639181957e-31
8.6193324861478e-31
6.0924366920531e-30
3.9160010529769e-29
2.3883994289741e-28
1.4897025348349e-27
1.0343841395267e-26
7.62448576432e-26
5.3596904624402e-25
3.3969791064583e-24
1.910194188687e-23
9.5094971798638e-23
4.1891149927648e-22
1.632504709608e-21
5.6319401193386e-21
1.7208458700569e-20
4.6472460084533e-20
1.1024517580629e-19
2.2759666242666e-19
4.0561776194866e-19
6.2637511817622e-19
8.6143407324484e-19
1.1070658791911e-18
1.3952027145044e-18
1.7791374325948e-18
2.3142025736657e-18
3.0109328098741e-18
3.7338371659497e-18
4.1490784182422e-18
4.1818784829138e-18
4.1092591734493e-18
3.8657710638701e-18
3.3658339510979e-18
2.6266241128452e-18
1.7837783797104e-18
1.0238971002424e-18
4.8533121213511e-19
1.8936749457322e-19
6.2933280963382e-20
1.9121553632531e-20
5.7212966944761e-21
1.7579776192115e-21
5.5960026714824e-22
1.8361983194167e-22
6.1695999370244e-23
2.1086998354685e-23
7.2737481654445e-24
2.5088491453144e-24
8.5742987892912e-25
2.8826290495033e-25
9.4934999758537e-26
3.0595956436047e-26
9.6622901555206e-27
2.9974557002196e-27
9.1579237781127e-28
2.7612515771997e-28
8.228080667688e-29
2.42541464409e-29
7.0772630541969e-30
2.0454413649852e-30
5.8584959994792e-31
1.6637498798365e-31
4.6870997021571e-32
1.3104725490358e-32
3.6377568203608e-33
1.0029488903139e-33
2.7473023998436e-34
7.4790743108781e-35
2.0240623227782e-35
5.4468621090481e-36
1.4578705266589e-36
3.8818414790711e-37
1.0284718372669e-37
2.7118536315805e-38
7.1176618794948e-39
1.8598529984116e-39
4.8390500385158e-40
1.2538129004017e-40
3.2365151846684e-41
8.3038691038077e-42
2.1646586599992e-42
4.7015338856785e-43
2.3499274467764e-43
0
0
0
0
4.8228610048795e-60
9.7953890768401e-47
1.2580753977465e-44
7.9722738823966e-43
3.3181945458512e-41
1.0203007540386e-39
2.4722058512125e-38
4.9188280992269e-37
8.2699208628043e-36
1.1971721321826e-34
1.5154287772654e-33
1.6938268995898e-32
1.6810072171767e-31
1.4963588018308e-30
1.1913544098326e-29
8.5712653033135e-29
5.560146735717e-28
3.2223689414423e-27
1.9006039555555e-26
1.3089158026221e-25
1.0842174248794e-24
9.7857560525439e-24
8.3866398125138e-23
6.2235150790212e-22
3.9044725156904e-21
2.0734953918531e-20
9.3503985404516e-20
3.5897387921803e-19
1.1755763186169e-18
3.2859852709937e-18
7.8244710894554e-18
1.5765542377448e-17
2.6440606203801e-17
3.5949837957913e-17
3.9712450304652e-17
3.9588435139905e-17
3.8493219470422e-17
3.8625119685663e-17
4.0088723707517e-17
4.386985171782e-17
5.0152139634367e-17
5.6249757636867e-17
5.7984325544832e-17
5.737884142608e-17
5.4770929045615e-17
4.8772946980097e-17
3.9045502271949e-17
2.7291856956444e-17
1.6184921973807e-17
7.9693940908845e-18
3.2493349755582e-18
1.1320534559407e-18
3.597518616124e-19
1.1190342414508e-19
3.5576948695766e-20
1.1705524735626e-20
3.9761333690996e-21
1.3859507561957e-21
4.9211244039711e-22
1.7638702223821e-22
6.3161638592327e-23
2.2369979094332e-23
7.7742163247403e-24
2.6386497267396e-24
8.7350786193896e-25
2.8242229931266e-25
8.9435339439029e-26
2.7826808036254e-26
8.5295383811514e-27
2.5806929920996e-27
7.7170599222629e-28
2.2826878270057e-28
6.683558735266e-29
1.9381697960399e-29
5.5698430348633e-30
1.5870586241896e-30
4.4859636481874e-31
1.2584167852662e-31
3.5048761398524e-32
9.6952006177855e-33
2.6645227382155e-33
7.2776532970483e-34
1.976028263287e-34
5.335022081088e-35
1.4325961160867e-35
3.8269395124754e-36
1.0172058571325e-36
2.6907831795381e-37
7.0849814330632e-38
1.8572194624801e-38
4.8473792665003e-39
1.2602450636753e-39
3.2560796264546e-40
8.5463623464237e-41
1.8686362041745e-41
9.4106848100846e-42
0
0
0
0
-1.326636194012e-70
1.5786875469551e-45
1.8894747701184e-43
1.1239815521074e-41
4.4233241834669e-40
1.2944221274299e-38
3.0022324898597e-37
5.7479364715298e-36
9.3444403336643e-35
1.315180950222e-33
1.6281241665944e-32
1.7909992038791e-31
1.7620499024329e-30
1.5655050674585e-29
1.2501398766788e-28
9.0859104790928e-28
6.0142575509059e-27
3.4796500370662e-26
1.922220236268e-25
1.2001113390748e-24
1.002694176834e-23
1.0252097672286e-22
1.0081872920706e-21
8.7708856947757e-21
6.3123043470068e-20
3.6609800289655e-19
1.7524092937502e-18
7.0864735255093e-18
2.4447865888644e-17
7.2051483780705e-17
1.8084074363246e-16
3.8331542631689e-16
6.7215083879536e-16
9.3034429405716e-16
1.0055458247153e-15
9.8881186468817e-16
9.2076816812176e-16
7.855571232834e-16
6.2635705720682e-16
5.7484985343558e-16
5.8572352486507e-16
6.1030054814505e-16
6.2295390331311e-16
6.1903326400234e-16
5.9647105719843e-16
5.3902886916994e-16
4.406051761132e-16
3.1602230566927e-16
1.9338845576008e-16
9.890262274384e-17
4.2153495730075e-17
1.5406005285276e-17
5.1270239497601e-18
1.6614475826376e-18
5.4798557353082e-19
1.8685820696421e-19
6.5860939446941e-20
2.3860195467887e-20
8.8140106835045e-21
3.2867212911997e-21
1.2234251204879e-21
4.4975463270405e-22
1.619033953063e-22
5.6768849117241e-23
1.9352017318465e-23
6.4204508150732e-24
2.0792762000742e-24
6.5971203527008e-25
2.0576020093385e-25
6.3249910327036e-26
1.9195981030218e-26
5.7584029547289e-27
1.7087382328411e-27
5.0189251094059e-28
1.4600528052975e-28
4.2091970720835e-29
1.2031977878333e-29
3.4118889732796e-30
9.6020460190105e-31
2.6829643675878e-31
7.4456580636289e-32
2.0529087615787e-32
5.6252831661102e-33
1.5323112044694e-33
4.1503814230124e-34
1.1180724331993e-34
2.9963179812071e-35
7.9897001343289e-36
2.1202162312462e-36
5.6003574813589e-37
1.4726382606929e-37
3.8566498125847e-38
1.0035690701145e-38
2.65261779998e-39
5.8387939648908e-40
2.9638855347059e-40
0
0
0
0
3.4063678720065e-106
1.8393155971739e-44
2.1147042584025e-42
1.2109305822562e-40
4.5983211519337e-39
1.3014604256516e-37
2.9257633582997e-36
5.4399788322121e-35
8.6042515831488e-34
1.180948235824e-32
1.4294838933831e-31
1.5431311366006e-30
1.4973954490832e-29
1.318707066428e-28
1.0504729961241e-27
7.6413767833046e-27
5.1140179728022e-26
3.0352864140329e-25
1.6313896504459e-24
8.9426515125856e-24
6.562974935047e-23
6.7844992166805e-22
7.34935949093e-21
6.8072943864015e-20
5.2297009054999e-19
3.4896190130138e-18
1.910150485078e-17
8.5364452549785e-17
3.2113052895917e-16
1.0378607507985e-15
2.8676654300462e-15
6.6686593629026e-15
1.2724705458477e-14
1.8907921402864e-14
2.1192690021376e-14
2.0876250259702e-14
1.9325943981673e-14
1.5990601802498e-14
1.134910968564e-14
7.5570641147564e-15
5.8619423794446e-15
5.5206689387271e-15
5.4429591226068e-15
5.3399011252909e-15
5.1107492116592e-15
4.6427045921576e-15
3.8689608257027e-15
2.8586562325549e-15
1.8160418020764e-15
9.6960023455464e-16
4.3293352573374e-16
1.6583498890927e-16
5.7688291826514e-17
1.9467257093956e-17
6.6708971388361e-18
2.3630647197329e-18
8.6621193915351e-19
3.26743120009e-19
1.2574207706326e-19
4.8840421516812e-20
1.8924118390658e-20
7.2340836738651e-21
2.7038478020368e-21
9.8221864404413e-22
3.4585569499978e-22
1.1809078579471e-22
3.9207324092843e-23
1.2708393248451e-23
4.0381090396169e-24
1.2621584124391e-24
3.889944377187e-25
1.1839416623656e-25
3.5620333787959e-26
1.0601293970339e-26
3.123126292736e-27
9.1128817071124e-28
2.6351834097993e-28
7.5559396101587e-29
2.1493079077543e-29
6.0677657834608e-30
1.7007769445157e-30
4.7348586724806e-31
1.3096266287439e-31
3.5999564023412e-32
9.8372729036023e-33
2.6729415016021e-33
7.2234212784766e-34
1.9419118900475e-34
5.194417637842e-35
1.3827655257821e-35
3.6637651925621e-36
9.6664634359888e-37
2.5337178356368e-37
6.7450787522966e-38
1.4946826110745e-38
7.6504128463463e-39
0
0
0
0
-5.5809931214954e-102
1.655859894493e-43
1.8585796659894e-41
1.0391745925106e-39
3.855003258506e-38
1.0665499833439e-36
2.3452278897143e-35
4.2673964669158e-34
6.6080083059396e-33
8.8846137052696e-32
1.0541640666765e-30
1.1169347958374e-29
1.0666096551022e-28
9.2692086061576e-28
7.3293228699786e-27
5.3069747206575e-26
3.5483159679563e-25
2.1519847295064e-24
1.172811605614e-23
5.9375572379098e-23
3.5087240515241e-22
3.0890737083348e-21
3.4462808100951e-20
3.3519137122051e-19
2.7794222259889e-18
1.9487210743221e-17
1.2191049666786e-16
6.6539281951975e-16
3.0250530805424e-15
1.0853464206638e-14
3.2680940453861e-14
8.4083594211555e-14
1.7946136148307e-13
2.9908138900446e-13
3.6368193534458e-13
3.6203937001017e-13
3.3719276927202e-13
2.7601672020293e-13
1.8406509915659e-13
1.0083191138519e-13
5.5592851123643e-14
4.12033785916e-14
3.7777144993347e-14
3.6295796542014e-14
3.4615629970871e-14
3.1808517456237e-14
2.7212487864563e-14
2.0859295788301e-14
1.3824582728157e-14
7.7148046729498e-15
3.6007298939741e-15
1.4411681578337e-15
5.2351097118161e-16
1.8426741189028e-16
6.5784002062293e-17
2.4268837354229e-17
9.2696716598653e-18
3.646106155421e-18
1.4636283091927e-18
5.9291452277973e-19
2.3950263976921e-19
9.5393750509755e-20
3.7118137937562e-20
1.401516765974e-20
5.1160071950157e-21
1.8042493354948e-21
6.1605401160283e-22
2.0449095295848e-22
6.6306984644445e-23
2.1095245785961e-23
6.606650783509e-24
2.0411427137543e-24
6.2289879471135e-25
1.879221001054e-25
5.6085223485485e-26
1.6569413242365e-26
4.8486853485497e-27
1.4062195356347e-27
4.0441294846738e-28
1.153839414059e-28
3.2673639651957e-29
9.1864293699479e-30
2.5653312307327e-30
7.117467432567e-31
1.9625454213253e-31
5.3795157755573e-32
1.4662369669532e-32
3.9746884018645e-33
1.0718478703535e-33
2.8759606441412e-34
7.6792714071235e-35
2.0414681674243e-35
5.3906414220557e-36
1.4455318946043e-36
3.2248517844245e-37
1.6649221281501e-37
0
0
0
0
2.698802673467e-80
1.2019254758739e-42
1.3295626790267e-40
7.3222434172376e-39
2.6745876666206e-37
7.2848930126371e-36
1.5769527473388e-34
2.8245205087578e-33
4.3043526695085e-32
5.69442308064e-31
6.6454584237976e-30
6.9249261160743e-29
6.5083897421188e-28
5.5703752879742e-27
4.3552049517996e-26
3.1267375278771e-25
2.0750346126342e-24
1.2671933579561e-23
7.0530759899686e-23
3.5441694496305e-22
1.7731238764973e-21
1.1570585534222e-20
1.1004606720149e-19
1.0676774565481e-18
9.5929263259692e-18
7.1414350643438e-17
4.9334549559409e-16
3.0491904104993e-15
1.5157749777884e-14
7.7576156741455e-14
3.2110387819968e-13
9.8780116740841e-13
2.4327417925146e-12
4.2443160339667e-12
4.8988601126153e-12
4.7439232963299e-12
4.1442534449105e-12
3.052222515163e-12
1.7902118619227e-12
8.5378160246206e-13
3.9184739435432e-13
2.4226948310564e-13
2.0641892445376e-13
1.9558491804015e-13
1.8732758553208e-13
1.7504830922087e-13
1.5408916066633e-13
1.2258156331825e-13
8.4712767835093e-14
4.9446154675964e-14
2.421170164822e-14
1.0189231444962e-14
3.8894245070538e-15
1.4338957814607e-15
5.3449497181985e-16
2.0567849641287e-16
8.1991187680445e-17
3.3684228127364e-17
1.4126289388351e-17
5.9773748312545e-18
2.5214711047148e-18
1.0487002911805e-18
4.260095648097e-19
1.6778564515871e-19
6.3752281692344e-20
2.3319820311537e-20
8.2202523092993e-21
2.8029202631261e-21
9.2946684059664e-22
3.0139570011273e-22
9.5995484928565e-23
3.0121299087089e-23
9.3276664428511e-24
2.8536432244343e-24
8.6312345540154e-25
2.5827334859428e-25
7.6507244742291e-26
2.2449927881664e-26
6.5293312443899e-27
1.8831689690147e-27
5.3886121358075e-28
1.5304201364202e-28
4.3157127440308e-29
1.2087887629283e-29
3.3638770135545e-30
9.303506553641e-31
2.5579116892864e-31
6.9930018608453e-32
1.9014284550611e-32
5.143141465314e-33
1.3841442958524e-33
3.7080191926064e-34
9.8650515044957e-35
2.6650207042476e-35
5.9856257523428e-36
3.1180914230731e-36
0
0
0
8.1471657355855e-71
2.6654676817832e-56
7.2408227433201e-42
7.9419123279556e-40
4.3331954028509e-38
1.5669565782542e-36
4.2229988914043e-35
9.0416167652509e-34
1.6011160804051e-32
2.4111132273444e-31
3.1504482786267e-30
3.6284735913719e-29
3.7288597628534e-28
3.4544417446144e-27
2.9121870135141e-26
2.2463797921393e-25
1.5939944110332e-24
1.0461653643493e-23
6.3625868124943e-23
3.5715671494391e-22
1.8295124240205e-21
8.674563963975e-21
4.3779283882988e-20
2.9619803631807e-19
2.441026439057e-18
2.1087990700022e-17
1.6424834449246e-16
1.2178162574244e-15
8.1333263870277e-15
4.6554853527973e-14
2.6557385936296e-13
1.2486565660528e-12
7.3397978887352e-12
2.2594219881112e-11
4.7024844079915e-11
5.6008972483021e-11
5.1815128039161e-11
3.9625949390752e-11
2.3303407553034e-11
1.0517560147511e-11
4.1162234072892e-12
1.7430047047967e-12
1.0311577133997e-12
8.6961130778972e-13
8.3686818479295e-13
8.1300489078484e-13
7.707132397925e-13
6.9069319292269e-13
5.637468178278e-13
4.0442752291099e-13
2.4842301676942e-13
1.2951287140853e-13
5.8315295051981e-14
2.3720869859448e-14
9.2354635644336e-15
3.6095715722636e-15
1.4525319893366e-15
6.0561899014771e-16
2.6038241291283e-16
1.1428794754006e-16
5.0602722664343e-17
2.2335533016408e-17
9.7235793752486e-18
4.1363090245235e-18
1.7056624719948e-18
6.7752514697803e-19
2.5824411146729e-19
9.4396919173627e-20
3.3188197745792e-20
1.1286041830292e-20
3.7367019295893e-21
1.2116083943359e-21
3.8634457571155e-22
1.2145370906471e-22
3.7693322197556e-23
1.1558410531342e-23
3.5043463735235e-24
1.0511913778041e-24
3.1218471950897e-25
9.1848013599135e-26
2.6785695571201e-26
7.746933410167e-27
2.2230269548696e-27
6.3317279831874e-28
1.7906927482667e-28
5.030214195092e-29
1.403951101024e-29
3.8944007442811e-30
1.0739057799024e-30
2.9446506917339e-31
8.0305061881907e-32
2.1785665072017e-32
5.8820153829228e-33
1.576873276958e-33
4.2920875375945e-34
9.7054029117406e-35
5.1031014922456e-35
0
0
0
1.723369374301e-68
1.9290313706458e-54
3.6946003785764e-41
4.0352056679386e-39
2.1903763262337e-37
7.8735947210458e-36
2.1077270166331e-34
4.4796997158811e-33
7.8699629845686e-32
1.1749818526523e-30
1.5211661239356e-29
1.7343681816918e-28
1.7628202973477e-27
1.6134867620132e-26
1.3419965932385e-25
1.021056025439e-24
7.1484360411291e-24
4.6289316381795e-23
2.784488064341e-22
1.5573368885915e-21
8.0566880431308e-21
3.8367188298226e-20
1.7430461054012e-19
8.6517395266282e-19
5.1809226376549e-18
3.6089867690198e-17
2.569665822696e-16
1.7811604557018e-15
1.1961554107387e-14
7.5014142358226e-14
4.2762728438485e-13
2.3091292758987e-12
1.1527923457434e-11
5.359421870149e-11
2.1522591276891e-10
3.6003320421481e-10
3.4598296170314e-10
2.3167424891184e-10
1.1226572174911e-10
4.4472311956612e-11
1.8445493659012e-11
9.6190312518045e-12
5.9091772572974e-12
4.025720792068e-12
3.2254927456013e-12
2.9195266893099e-12
2.6988456782225e-12
2.4181481401079e-12
2.0191540696909e-12
1.5146909356155e-12
9.9087773131317e-13
5.5685769139043e-13
2.7110656039513e-13
1.1853515404845e-13
4.9114486767817e-14
2.0267399007395e-14
8.5783007061482e-15
3.7570351699191e-15
1.6956670448418e-15
7.807632077711e-16
3.6248044122127e-16
1.6778640071154e-16
7.6660129787531e-17
3.4258585307419e-17
1.4847864434651e-17
6.1933075453976e-18
2.4718331201598e-18
9.415296958268e-19
3.4280841682635e-19
1.1995389481963e-19
4.064355223365e-20
1.3434075551489e-20
4.3564815401688e-21
1.3909553306852e-21
4.3808604383682e-22
1.3624263470467e-22
4.1868014891704e-23
1.2722175116489e-23
3.8251736710666e-24
1.138793004874e-24
3.3590081283777e-25
9.8217450671014e-26
2.8483184338693e-26
8.195944567366e-27
2.3409402891624e-27
6.6392323415631e-28
1.8703551763459e-28
5.2352818670925e-29
1.4564203824772e-29
4.0278731784916e-30
1.1076754491439e-30
3.029558929069e-31
8.2450020665926e-32
2.2275773979656e-32
6.1099232503493e-33
1.3910104336031e-33
7.3848635065139e-34
0
0
0
1.455030681616e-70
5.7938169289118e-54
1.6194454741473e-40
1.7671322642862e-38
9.5744599359802e-37
3.4324215672951e-35
9.1560127486676e-34
1.9376062253808e-32
3.386842599538e-31
5.0274220050093e-30
6.4667647390994e-29
7.3194747432812e-28
7.3787050218221e-27
6.6906552907133e-26
5.5044317906399e-25
4.1373721439818e-24
2.8587406529004e-23
1.8252176090796e-22
1.0822895215789e-21
5.9827434729286e-21
3.0829311860495e-20
1.4761986164421e-19
6.5961134541213e-19
2.8564804744996e-18
1.2942376918904e-17
6.5449608264023e-17
3.6784525039893e-16
2.15893529696e-15
1.253004797737e-14
7.4951880521685e-14
4.2218153977906e-13
2.3276056637337e-12
1.1092696821736e-11
5.2813941203714e-11
1.9646871479815e-10
5.5942054707471e-10
1.2329245409324e-09
1.1455373865634e-09
7.6945075579325e-10
4.6263165743622e-10
2.7912252666664e-10
1.5526869449406e-10
7.0246009123703e-11
2.527177030093e-11
1.0780191492189e-11
7.8111684264414e-12
7.0608004048522e-12
6.4635350928792e-12
5.6352484521231e-12
4.4909113234098e-12
3.1587326929152e-12
1.9227504538602e-12
1.0173787461975e-12
4.8242644128151e-13
2.1516494052558e-13
9.4707276921694e-14
4.2470477662066e-14
1.9635252128068e-14
9.3364498465825e-15
4.5233398841855e-15
2.208160621364e-15
1.074904733532e-15
5.1696467330966e-16
2.4350863409721e-16
1.1134483195282e-16
4.8982927439709e-17
2.0570349899942e-17
8.2063393061786e-18
3.109159002897e-18
1.1239327416838e-18
3.9083033406423e-19
1.3192287904558e-19