/*--------------------------------*- C++ -*----------------------------------*\
  =========                 |
  \\      /  F ield         | OpenFOAM: The Open Source CFD Toolbox
   \\    /   O peration     | Website:  https://openfoam.org
    \\  /    A nd           | Version:  7
     \\/     M anipulation  |
\*---------------------------------------------------------------------------*/
FoamFile
{
    version     2.0;
    format      ascii;
    class       surfaceScalarField;
    location    "2.3";
    object      alphaPhi0.water;
}
// * * * * * * * * * * * * * * * * * * * * * * * * * * * * * * * * * * * * * //

dimensions      [0 3 -1 0 0 0 0];

internalField   nonuniform List<scalar> 
11840
(
0
0
0
0
0
0
0
0
0
0
0
0
0
0
0
0
0
0
0
0
0
0
0
0
0
0
0
0
0
0
0
0
0
0
0
0
0
0
0
0
0
0
0
0
0
0
0
0
0
0
0
0
0
0
0
0
0
0
0
0
0
0
0
0
0
0
0
0
0
0
0
0
0
0
0
0
0
0
0
0
0
0
0
0
0
0
0
0
0
0
0
0
0
0
0
0
0
0
0
0
0
0
0
0
0
0
0
0
0
0
0
0
0
0
0
0
0
0
0
0
0
0
0
0
0
0
0
0
0
0
0
0
0
0
0
0
0
0
0
0
0
0
0
0
0
0
0
0
0
0
0
0
0
0
0
0
0
0
0
0
0
0
0
0
0
0
0
0
0
0
0
0
0
0
0
0
0
0
0
0
0
0
0
0
0
0
0
0
0
0
0
0
0
0
0
0
0
0
0
0
0
0
0
0
0
0
0
0
0
0
0
0
0
0
0
0
0
0
0
0
0
0
0
0
0
0
0
0
0
0
0
0
0
0
0
0
0
1.8858644325534e-205
-5.8648789425871e-220
3.0496194782456e-205
1.5248097391228e-205
4.8332992096927e-205
2.4166348428982e-205
8.9152498034613e-206
3.9489315386634e-205
1.6209545097202e-206
7.2942952937411e-206
6.1891047662707e-186
0
1.0539106727724e-185
5.0445866247265e-186
1.9162012232225e-186
8.6229055045016e-186
3.4840022240409e-187
1.5678010008184e-186
6.3345494982561e-188
2.8505472742153e-187
1.8389514188102e-187
0
2.9186095391112e-187
0
5.306562798384e-188
2.3879532592728e-187
4.0691341795016e-188
2.0345670897508e-188
4.0076694180129e-188
0
3.2844511599061e-188
0
2.3426107285814e-188
0
4.2592922337843e-189
1.916681505203e-188
7.7441676977896e-190
3.4848754640054e-189
4.9459264918274e-190
0
2.884484836634e-190
0
5.2445178847891e-191
2.3600330481551e-190
2.8331321741964e-191
0
5.1511494076298e-192
2.3180172334334e-191
2.1996155074513e-192
1.0998077537256e-192
3.9993009226386e-193
1.7996854151874e-192
1.9348834476143e-193
0
8.8829572654909e-194
0
1.6150831391802e-194
7.2678741263107e-194
7.0779001936689e-195
0
1.2868909443035e-195
5.7910092493653e-195
5.4098083403548e-196
0
2.1904404402134e-196
0
3.9826189822142e-197
1.7921785419919e-196
1.5586085829821e-197
0
2.8338337873434e-198
1.2752252042457e-197
5.152425069483e-199
2.3185912802677e-198
1.954760369326e-199
0
3.5541097804368e-200
1.5993493901632e-199
1.3105320741192e-200
0
2.3827858940477e-201
1.0722534564248e-200
8.5588664511134e-202
0
1.5561901087978e-202
7.0027070797368e-202
4.9634602223134e-203
2.4817301111567e-203
9.0248680933837e-204
4.0609610296764e-203
2.835318481241e-204
1.4176592406205e-204
8.780562209411e-205
4.3902811047055e-205
1.6642835103822e-205
6.8970040848404e-205
5.2898754936164e-206
2.6449377468082e-206
1.7972086585794e-206
0
5.453676118603e-207
2.7268380593015e-207
1.7601253719823e-207
0
5.0999371740165e-208
3.1521422630148e-208
1.5911632449838e-208
0
4.5431552005352e-209
2.3027734254914e-209
1.2844028188612e-209
6.4220140943061e-210
3.5946258753115e-210
1.8006119347831e-210
1.064160480336e-210
0
3.1099695246141e-211
0
8.4416965685574e-212
4.2208495723793e-212
2.4136180145858e-212
0
6.4379174123711e-213
3.2189597806289e-213
1.8045825187915e-213
0
4.7375750465675e-214
2.3687875232838e-214
1.3044113292369e-214
0
3.5595044666458e-215
0
9.1455995305905e-216
4.5727997687448e-216
2.4577790808511e-216
0
6.2371546955729e-217
3.1185773477865e-217
1.6528613363374e-217
0
4.1469063836752e-218
2.0734531918417e-218
1.0352829175124e-218
5.1764145875622e-219
2.6931369033085e-219
0
6.6550867126745e-220
3.3275433563373e-220
1.676321993092e-220
2.329205239643e-221
4.0978236508345e-221
2.0489118254173e-221
1.0025634098012e-221
4.1157567545857e-222
2.4353030902574e-222
1.1256308133094e-222
5.8813300272196e-223
2.9406650136099e-223
1.415616962079e-223
7.0370375047934e-224
2.2304698161834e-224
0
0
0
0
0
0
0
0
0
0
0
0
0
0
0
0
0
0
0
0
0
0
0
0
0
0
0
0
0
0
0
0
0
0
0
0
0
0
4.6226895798055e-147
2.3113447899028e-147
4.4336256194519e-143
2.2168128097259e-143
4.0305749735274e-143
4.0305860472322e-144
0
2.6406708696022e-138
6.504526073003e-121
0
5.6215310688495e-121
1.5013524367764e-120
5.6215310688495e-121
0
1.08655366249e-119
5.3528242212413e-120
2.010613727062e-120
1.2249971897662e-119
2.010613727062e-120
0
7.7963965445546e-120
0
1.7144112806547e-119
0
2.6088836218856e-119
0
1.0308789106093e-120
2.5057957308247e-119
1.0994400164189e-120
0
1.1248401991072e-120
0
1.1006241832642e-120
0
8.9236696583917e-121
0
2.665787751341e-122
8.6570908832576e-121
2.7086113276197e-122
0
7.3804027377521e-123
0
7.3804027377521e-123
0
1.3446925280437e-123
0
1.34430255772e-123
0
2.5655995002016e-125
1.318646562718e-123
1.842279452952e-125
0
1.4564825532717e-125
0
2.2815777320563e-126
0
1.0387003003023e-126
0
4.5750311662369e-127
0
1.6824698069233e-127
0
9.2904678140706e-128
0
1.105310140752e-128
0
3.7085422982813e-129
0
2.3748113880757e-129
0
1.1768170735565e-129
0
1.4740556133189e-130
1.0294115122246e-129
7.6391223072173e-131
0
2.3785001652122e-132
7.4012722906961e-131
2.3773262888943e-132
0
5.4022360944635e-134
2.3233039279496e-132
5.3983546021302e-134
0
2.7742500157046e-134
0
1.0513509944702e-135
2.6691149162576e-134
9.2163933264184e-136
0
1.6757078775306e-136
7.5406854488878e-136
2.0856269754183e-137
1.4671451799888e-136
1.0625707320632e-137
0
3.308433756505e-139
1.0294863944982e-137
3.306742628579e-139
0
5.951509845419e-141
3.2472275301248e-139
3.7223183031614e-141
0
2.2680540224985e-141
0
2.4085003676755e-142
0
2.4072177222861e-142
0
4.3767594950656e-143
1.9695417727795e-142
1.3687042677678e-144
4.2398890682888e-143
3.3598276271646e-145
0
3.3580224638797e-145
0
1.3599414499403e-146
3.2220283188857e-145
1.181160653237e-146
0
1.4539134686505e-147
1.035769306372e-146
7.1838452142592e-148
0
1.5826928394133e-149
7.0255759303179e-148
1.5814772920183e-149
0
6.7551620218836e-150
0
1.5792602467649e-150
0
8.4882538331028e-151
0
1.8932414420743e-152
8.2989296888954e-151
1.8918335062279e-152
0
8.6729469804636e-153
0
1.0577725275874e-153
7.6151744528762e-153
5.089753360616e-154
0
4.149772825794e-155
4.6750367669783e-154
2.3586205764212e-155
0
1.0280254718293e-155
0
4.3833514788941e-156
0
1.8508790005567e-156
0
3.3509150003663e-157
1.5157875005201e-156
1.3869360423378e-157
0
0
0
0
0
0
0
0
0
0
0
0
0
0
0
0
0
0
0
0
0
0
0
0
0
0
0
0
0
0
0
0
0
0
0
0
-4.1959377114143e-85
-2.0979688557072e-85
-3.9005212045505e-84
-1.9502606022752e-84
-4.0039673078472e-83
-2.0019836539236e-83
-2.099861938935e-82
-1.0499309694675e-82
-7.4923509845832e-82
-3.7461754922916e-82
-2.0742563678602e-81
-1.0371281839301e-81
2.4926964032754e-68
1.2372494374077e-68
1.2597627767953e-69
2.3805827674646e-68
8.5339161919572e-70
4.3384011729716e-70
1.4271964564171e-70
7.1067197343507e-70
1.4342716287004e-71
1.283769293547e-70
1.0005263268056e-68
7.4184123013748e-69
8.7014225058168e-68
5.5313536722126e-68
1.109757875971e-65
6.4569860671167e-66
1.0139971527178e-64
6.7323575317437e-65
6.7167520299306e-64
4.3470709140088e-64
1.7863670781328e-62
1.014354528873e-62
8.4933447547258e-62
5.5301806728595e-62
1.3152893164096e-59
0
2.31653406624e-59
1.4736100177975e-59
2.3112463444066e-59
4.7791718752726e-59
1.4278711736181e-58
9.2104230660325e-59
5.7130830683893e-58
3.9926835902517e-58
2.9147283902391e-57
1.5865152672202e-57
1.2363994874481e-56
8.7544302651385e-57
4.440635277964e-56
3.2533607276756e-56
1.2912358189835e-55
9.4643437411373e-56
4.6043355841087e-55
3.0534558004382e-55
1.2015725893129e-54
8.273925279453e-55
3.012512948688e-54
2.3628771139957e-54
6.4295135001041e-54
5.0887303219679e-54
1.5244248011736e-53
1.0848935489664e-53
3.5952017371459e-53
2.593120799375e-53
7.6068028612265e-53
6.0978401571742e-53
1.5617616997357e-52
1.2924573955344e-52
2.6701507322449e-52
2.2631274733266e-52
4.0322183979326e-52
3.6399037483799e-52
4.1661583727072e-52
4.3887073703817e-52
4.0904470269961e-52
4.3481175749478e-52
4.0953365774835e-52
4.0943622228851e-52
3.5804476527355e-52
3.9641251579766e-52
3.1851455787916e-52
3.3997482658183e-52
2.4690935568766e-52
2.9504873357158e-52
1.7070594323404e-52
2.1521420953827e-52
9.4055934708156e-53
1.3071540479521e-52
2.9930421775692e-53
5.9888955847344e-53
5.9697300106231e-54
1.5904582481107e-53
9.2835280911919e-55
3.8789059872819e-54
1.4953735556354e-55
7.463532034897e-55
3.7822316470748e-56
9.8858471959174e-56
6.1634258147008e-57
3.0561803683469e-56
1.5870066382917e-57
4.0226490094072e-57
2.945586969729e-58
1.2456449331722e-57
4.8229972849459e-59
2.3884319258512e-58
1.153722717456e-59
3.2010775082654e-59
2.2049900807483e-60
8.7240498550719e-60
5.5129660625794e-61
1.4298259523445e-60
1.0203885276798e-61
4.3210146439222e-61
1.6449728759125e-62
8.2917136640908e-62
4.2701912505722e-63
1.0744832730376e-62
8.0134604907294e-64
3.3413243971656e-63
1.5341996314825e-64
6.3271690544554e-64
2.8566379100755e-65
1.2102410043637e-64
4.5361621412337e-66
2.3265883266638e-65
8.9344366198351e-67
3.5005778863096e-66
2.2523634949368e-67
5.8547343063427e-67
5.3345688786503e-68
1.427393773297e-67
1.1102371993248e-68
3.9833705954933e-68
2.6888412380388e-69
7.3017818924328e-69
4.9889391380111e-70
2.1076801581757e-69
8.0927339551585e-71
4.0564292667141e-70
2.060427321601e-71
5.3350653373125e-71
4.7569546974198e-72
1.3252979225376e-71
7.2453079200368e-73
3.8560095250242e-72
1.4764315705478e-73
5.535018229328e-73
3.71996297301e-74
9.7311883759446e-74
9.2034104682515e-75
2.352836049097e-74
2.2269380979956e-75
5.7726787041366e-75
4.8968862003871e-76
1.3963494128596e-75
8.0385505828429e-77
3.9013407649237e-76
1.9091184012179e-77
5.2807371760849e-77
5.4040272562593e-78
1.161951239881e-77
4.2871673054166e-78
0
0
0
0
0
0
0
0
0
0
0
0
0
0
0
0
0
0
7.1486628159698e-61
3.5957360152391e-61
5.3431156387564e-59
2.7823101307317e-59
9.1466903307371e-58
4.8449907747316e-58
1.5198723908751e-56
8.1024654600197e-57
2.1081491521141e-55
1.1511044913079e-55
2.5125621390481e-54
1.3470675411124e-54
6.0992784165022e-53
3.5465029783572e-53
2.3040164290966e-52
1.4058115945856e-52
1.3983622802558e-51
1.0833049465592e-51
1.5562304275311e-51
1.6905236791333e-51
7.4582464574651e-52
9.3546764853227e-52
1.4016585023309e-52
6.0565879551343e-52
4.4574838281352e-53
9.5591011951733e-53
8.9374222746322e-50
5.4738221262688e-50
1.651894437639e-50
7.2855278401714e-50
3.0033147909533e-51
1.3515629585441e-50
5.4608010269351e-52
2.4572346882598e-51
9.928741633637e-53
4.4679268635714e-52
1.8052258043981e-53
8.1235158292389e-53
3.2822287349121e-54
1.4770029309069e-53
5.9676935134842e-55
2.6854593835638e-54
3.6872615639605e-51
0
6.704112013288e-52
3.016850362632e-51
1.2189295580617e-52
5.4851824552382e-52
1.3219706745305e-50
0
3.372714627304e-51
9.8469921181936e-51
5.9327835313906e-44
0
5.6576183262491e-44
0
2.0710470615105e-45
5.4505136304228e-44
2.108897671032e-45
0
2.2657529468373e-46
1.8823223901594e-45
6.9716198651604e-47
1.5685909603656e-46
2.1330504773144e-47
4.7993573714879e-47
3.8789402793203e-48
1.7455226557497e-47
1.1009872138707e-49
3.768841933357e-48
1.2679215906997e-49
0
5.4470937592346e-50
0
2.4226630280922e-50
5.4506641617234e-50
4.4103599931337e-51
1.9830570752449e-50
7.2540505426912e-50
0
4.0148386049129e-48
0
4.0104226610456e-48
0
7.2928170706894e-49
3.2813567391228e-48
1.3280470467328e-49
5.9701834910591e-49
3.9920732580562e-48
0
3.9935835875754e-48
0
7.2652551202874e-49
3.2679499043789e-48
8.2280663035704e-49
0
1.4997692873537e-49
6.7359557827675e-49
1.6689078581123e-49
0
6.3531621020482e-51
1.6103810267873e-49
6.7169755039624e-51
0
6.7630902397421e-51
0
1.2760483988132e-51
5.5466998953062e-51
1.2331139886938e-51
0
2.260981994879e-52
1.0100240317428e-51
4.088409614563e-53
1.8578636593937e-52
3.5823007133996e-53
0
5.9035443680739e-54
2.994309602319e-53
4.9878883315857e-54
0
4.6798203229733e-55
4.5208634369653e-54
4.6816693811288e-55
0
1.0629921338133e-55
0
1.062818047222e-55
0
7.6892569481959e-56
0
1.3158031245304e-56
6.3734868023207e-56
2.3925447286221e-57
1.0765550269008e-56
5.6439483065123e-58
0
5.6427000491035e-58
0
1.8663863003105e-59
5.4560663053536e-58
1.8659719578236e-59
0
8.0726704458108e-61
1.7852470337265e-59
7.7757550069257e-61
0
3.1157245861865e-61
0
1.5211656100391e-61
0
1.5102627466942e-61
0
2.5188095370584e-62
0
2.5178983366156e-62
0
4.8190719314174e-64
2.4697076490915e-62
3.5004088551629e-64
0
2.6052691613949e-64
0
1.0567621484788e-65
2.4995929760302e-64
9.7898354230613e-66
0
2.7828016901244e-66
0
1.0666414411897e-66
0
9.8969103490428e-67
0
1.5223470742889e-67
0
1.5191379114227e-67
0
1.9461225444631e-68
0
1.4648926213649e-68
0
0
0
0
0
0
0
0
0
0
0
0
0
0
0
0
1.9346031715931e-51
9.6849470832378e-52
1.9727720726923e-49
9.9548801572797e-50
9.8543296636686e-48
5.0179857750842e-48
3.2121886029988e-46
1.6518022330581e-46
7.7083774634667e-45
4.0047404751637e-45
1.4550042402694e-43
7.640934519371e-44
2.2398757828028e-42
1.1899632304593e-42
2.8676659990668e-41
1.5427484774212e-41
3.1065431450251e-40
1.6929524318369e-40
2.9271987913846e-39
1.6136732593638e-39
2.4973299663818e-38
1.3882384242445e-38
2.0084849085537e-37
1.1221582683302e-37
1.557989513806e-36
8.7361097095607e-37
1.1651007301917e-35
6.5623172178109e-36
8.27806392228e-35
4.6937620264955e-35
5.4958245970157e-34
3.1448745705875e-34
3.367472676677e-33
1.9490258949692e-33
1.8909047901113e-32
1.1089525458962e-32
9.7010691177489e-32
5.7732061995008e-32
4.5450477940304e-31
2.7478565869574e-31
1.9462632999296e-30
1.1965769792704e-30
7.6289433743415e-30
4.7738095006358e-30
2.7421739133759e-29
1.747865739431e-29
9.0552021444172e-29
5.8837766556529e-29
2.7522833599952e-28
1.8243646188429e-28
7.7147670684939e-28
5.2202954524446e-28
1.9983829807985e-27
1.3812307424156e-27
4.7943675724036e-27
3.386509216285e-27
1.0679532772091e-26
7.7120721021678e-27
2.2147088408781e-26
1.6354675931595e-26
4.2879557665578e-26
3.2385584372901e-26
7.7714754880317e-26
6.0042194524022e-26
1.3211207400055e-25
1.044520915919e-25
2.1075860853836e-25
1.7069732866477e-25
3.1465089953046e-25
2.6175782113783e-25
4.3489399712259e-25
3.7432408069879e-25
5.408173683957e-25
4.900312753236e-25
5.873427821046e-25
5.6766275799508e-25
5.9103719851264e-25
5.8637751378062e-25
5.8230029232275e-25
5.8156669360137e-25
5.4753227783169e-25
5.5912030209391e-25
4.7510241584818e-25
5.0502378345439e-25
3.6988262406654e-25
4.1650731949905e-25
2.5024998203466e-25
3.0460940055294e-25
1.4230726141297e-25
1.9167366999775e-25
6.5970016649267e-26
1.0070581378585e-25
2.4695721412822e-26
4.3316127352045e-26
7.7352601260695e-27
1.539061284758e-26
2.1936190285129e-27
4.7453853413111e-27
6.0878999005397e-28
1.3630592260827e-27
1.7193240149388e-28
3.8575259378316e-28
4.9730846246873e-29
1.1039480131779e-28
1.4663118649316e-29
3.2139208759116e-29
4.3885959299511e-30
9.5086237922995e-30
1.3303814260379e-30
2.8535736450737e-30
4.0761483659637e-31
8.6707524340896e-31
1.2577641811693e-31
2.6603514817219e-31
3.889450654591e-32
8.2083838373309e-32
1.1991423164684e-32
2.5343383564864e-32
3.6704502244574e-33
7.7930370427207e-33
1.1125507292601e-33
2.3781097299086e-33
3.3361846207896e-34
7.1870458474016e-34
9.8980605483203e-35
2.1495502120054e-34
2.9070806880726e-35
6.3630672881547e-35
8.4572314668208e-36
1.8650847395557e-35
2.438234979425e-36
5.4157181820101e-36
6.9690085690049e-37
1.5585751614712e-36
1.9754695145541e-37
4.4471391551687e-37
5.5555677513425e-38
1.2585582466635e-37
1.5506062190838e-38
3.5339666181592e-38
4.2967760789601e-39
9.8492542283582e-39
1.182490901135e-39
2.7255009128233e-39
3.2329805815546e-40
7.4908978749806e-40
8.7838608373434e-41
2.0454999431923e-40
2.3722644315525e-41
5.5509553878814e-41
6.3701042563293e-42
1.4974594290612e-41
1.7011365929539e-42
4.01670843672e-42
4.5189534972129e-43
1.0715571996385e-42
1.194354649109e-43
2.8437121557797e-43
3.1413078860466e-44
7.5088000602518e-44
8.223358847791e-45
1.9731218647297e-44
2.1430112375247e-45
5.1607691028845e-45
5.5604071814309e-46
1.3437734103751e-45
1.4366866202002e-46
3.4838409562781e-46
3.6970331475621e-47
8.994495318217e-47
9.476320572292e-48
2.3128272790726e-47
2.4197764843165e-48
5.924021140442e-48
6.1564257038144e-49
1.5116307301062e-48
1.5603008673211e-49
3.8436149102805e-49
3.9510569952909e-50
9.7284200358523e-50
9.7442654974833e-51
2.4766065448824e-50
2.8973674192578e-51
5.7710269865457e-51
2.3567540765617e-51
0
0
0
0
0
0
0
0
0
0
0
0
1.7508242480627e-51
8.7358973375291e-52
2.6510714600622e-49
1.3225582302982e-49
1.7917637453746e-47
8.9738016278046e-48
7.5313879653026e-46
3.7953570351642e-46
2.2526671944912e-44
1.1439369189743e-44
5.1724005764911e-43
2.6495052425231e-43
9.5619748781763e-42
4.9450353019239e-42
1.4637871872636e-40
7.6500447068365e-41
1.8902719311162e-39
9.9926874330221e-40
2.0934458181939e-38
1.1203698208258e-38
2.0129460962536e-37
1.091282869307e-37
1.7027793711902e-36
9.3444950902911e-37
1.3042710757307e-35
7.2215975451753e-36
9.4342865404379e-35
5.2468534936624e-35
6.6192228178034e-34
3.6898425935167e-34
4.4971805065208e-33
2.5164684426132e-33
2.9156093217388e-32
1.6424873015639e-32
1.779258267789e-31
1.0116241390533e-31
1.0111888649156e-30
5.8148485935622e-31
5.3084685680806e-30
3.0936831977849e-30
2.559710377715e-29
1.5146595301998e-29
1.1298331460494e-28
6.7995668761898e-29
4.5573902902356e-28
2.7935199488866e-28
1.679200478783e-27
1.0496532060916e-27
5.6538464807652e-27
3.607946524989e-27
1.7413929054332e-26
1.1354735928786e-26
4.9147030901374e-26
3.276750894734e-26
1.2741131786107e-25
8.6896445968941e-26
3.0442089642106e-25
2.1239619016214e-25
6.7317555867459e-25
4.8033987474592e-25
1.3844028390444e-24
1.0096822514899e-24
2.6604177520297e-24
1.9820924489643e-24
4.7960425287337e-24
3.6492787122479e-24
8.1296133168104e-24
6.3201980493728e-24
1.2960189200632e-23
1.0308713608783e-23
1.9376057481141e-23
1.581482906494e-23
2.6902543249186e-23
2.2687879608678e-23
3.3790706842762e-23
2.9929384177047e-23
3.7154101390418e-23
3.5110280922976e-23
3.7484367854059e-23
3.6585425938321e-23
3.7105741040533e-23
3.6381756813768e-23
3.5164610990634e-23
3.5192519982712e-23
3.0885060356867e-23
3.2109549596628e-23
2.4463980034356e-23
2.687098003105e-23
1.6945261781144e-23
2.004692350786e-23
9.946114134897e-24
1.2954617484257e-23
4.8057346855106e-24
7.0485590987871e-24
1.8905732501308e-24
3.1667084149157e-24
6.229368109731e-25
1.1810872186259e-24
1.8433505448983e-25
3.8135855292286e-25
5.2822575874973e-26
1.1380076502267e-25
1.5313159203853e-26
3.3208728549082e-26
4.5441375151179e-27
9.7658370860975e-27
1.3778038776478e-27
2.92218987449e-27
4.2535916064206e-28
8.905260739802e-28
1.3334759325415e-28
2.7600191402428e-28
4.2310057443572e-29
8.6789255290688e-29
1.3519445050694e-29
2.7581771179367e-29
4.3230275985994e-30
8.8104957884341e-30
1.3747333062106e-30
2.8112610132496e-30
4.3268716060479e-31
8.910141249254e-31
1.3443521635864e-31
2.7939901656102e-31
4.1204924307487e-32
8.650721922246e-32
1.2466225039052e-32
2.6436263487054e-32
3.726690756629e-33
7.9783066998555e-33
1.1019158638717e-33
2.3799574472074e-33
3.2251525619971e-34
7.0233715668518e-34
9.3494870453741e-35
2.0518484751528e-34
2.6858166756302e-35
5.9376865365616e-35
7.6491754137085e-36
1.7028581109842e-35
2.1606973254351e-36
4.842057305177e-36
6.0561645088962e-37
1.3657229677735e-36
1.6849920640593e-37
3.8225838070241e-37
4.6553622492394e-38
1.062139320206e-37
1.2776461784239e-38
2.9308364630753e-38
3.4842049127584e-39
8.0339780217915e-39
9.4440232827835e-40
2.188421168083e-39
2.5449895153561e-40
5.9253609324846e-40
6.8202101548539e-41
1.5951295765237e-40
1.8179928682454e-41
4.270512939178e-41
4.8212800532639e-42
1.1372748818888e-41
1.2723168025499e-42
3.013311208612e-42
3.3417367081341e-43
7.9451378172302e-43
8.73714376506e-44
2.0850576346318e-43
2.2743566250767e-44
5.4471473382839e-44
5.8953107795736e-45
1.4168545560569e-44
1.5218695175325e-45
3.6698884498196e-45
3.9131687687543e-46
9.467061483192e-46
1.0023805475567e-46
2.4325667415712e-46
2.5574092723442e-47
6.2275178942389e-47
6.5184150567603e-48
1.5867461274996e-47
1.6176746529871e-48
4.0662141428464e-48
4.8449522411141e-49
9.5291638953242e-49
3.9277793129827e-49
0
0
0
0
0
0
0
0
0
0
7.9144598200177e-52
3.928835097352e-52
1.6275914544719e-49
8.0520200115793e-50
1.4272506680398e-47
7.0604819876596e-48
7.4871547651622e-46
3.7134606476673e-46
2.7281465238476e-44
1.3592142605563e-44
7.4916918055248e-43
3.7549387470803e-43
1.6333536173366e-41
8.2453563664896e-42
2.9293795611767e-40
1.490970964021e-40
4.4181126152945e-39
2.2696043074602e-39
5.6986349448005e-38
2.9576801002673e-38
6.3697144733218e-37
3.3436920602477e-37
6.2197377115231e-36
3.305361626636e-36
5.3560876406104e-35
2.8834672750475e-35
4.1135447901583e-34
2.2430294222637e-34
2.8569318966964e-33
1.5728159646939e-33
1.8793329335373e-32
1.0372217385637e-32
1.2330617403302e-31
6.7919453043931e-32
8.0436993412602e-31
4.4389893433811e-31
4.9989824979973e-30
2.7890508282909e-30
2.8937925170087e-29
1.6405636337142e-29
1.5547793105757e-28
8.9616100617407e-29
7.7373498787737e-28
4.5341865922541e-28
3.5504622273013e-27
2.1169534961337e-27
1.4938711102643e-26
9.0752786649406e-27
5.7333675016679e-26
3.5548015739212e-26
1.9986192271562e-25
1.2670558406998e-25
6.3079839302249e-25
4.0967575304772e-25
1.7989260506205e-24
1.199053341751e-24
4.6331557115082e-24
3.1742040572654e-24
1.0794761702532e-23
7.607742757555e-24
2.2863502964694e-23
1.6568329289396e-23
4.442122492958e-23
3.302609576659e-23
8.0215600764158e-23
6.0939607818223e-23
1.3668204475022e-22
1.0557335343627e-22
2.2263140538634e-22
1.7410497183717e-22
3.4883226715021e-22
2.7582178174467e-22
5.2400235701703e-22
4.2017779760685e-22
7.4380998522396e-22
6.1020083130117e-22
9.6839300703538e-22
8.2754193872793e-22
1.1075311059629e-21
1.0095213967777e-21
1.1317247304042e-21
1.0820180219642e-21
1.1278273593526e-21
1.0836986178336e-21
1.079692263783e-21
1.0564500180096e-21
9.6630846226202e-22
9.7868676429754e-22
7.8148772398243e-22
8.3462018040052e-22
5.553661071706e-22
6.3713609125417e-22
3.3640441192834e-22
4.2332404673437e-22
1.6898230042289e-22
2.3827115641416e-22
6.9580687551321e-23
1.1148337490978e-22
2.4039648245377e-23
4.3496001200359e-23
7.4186554512159e-24
1.467783065762e-23
2.1986760872713e-24
4.5513508332418e-24
6.5576570729697e-25
1.3717360028238e-24
2.0004495491214e-25
4.153445803734e-25
6.2475409324736e-26
1.2797433219703e-25
1.9923059143001e-26
4.0237057322146e-26
6.4673415306366e-27
1.2898141775543e-26
2.1276705433165e-27
4.2030341601948e-27
7.0486341335335e-28
1.3853330701572e-27
2.3333877113498e-28
4.5869997033807e-28
7.6625406637056e-29
1.5144155793968e-28
2.4826724615243e-29
4.9530589275097e-29
7.9145093120845e-30
1.5976952269267e-29
2.4814462877665e-30
5.0725604195933e-30
7.6598100669381e-31
1.5850160813592e-30
2.3315624927527e-31
4.8792785696922e-31
7.0086197866976e-32
1.4818023685511e-31
2.0829126238861e-32
4.4452120247635e-32
6.1253021352219e-33
1.318582248104e-32
1.7835475863366e-33
3.8706173811767e-33
5.1450038040478e-34
1.1251045858245e-33
1.4711441531253e-34
3.2403444402454e-34
4.171623062843e-35
9.2512549162211e-35
1.1736340377529e-35
2.6195753613461e-35
3.2773257414348e-36
7.3599627845358e-36
9.0872234804948e-37
2.052637830216e-36
2.5027547639115e-37
5.6846417007417e-37
6.8488711831368e-38
1.5638535350403e-37
1.8627753833442e-38
4.2749125507804e-38
5.0368652542379e-39
1.1615071217517e-38
1.3543392911604e-39
3.1375876071145e-39
3.6221222312648e-40
8.4286220762205e-40
9.6374322687719e-41
2.2521836292363e-40
2.5515844632008e-41
5.9872909710902e-41
6.7234304119416e-42
1.5838822392771e-41
1.7635223645292e-42
4.1702520783731e-42
4.6052377097532e-43
1.0930107046929e-42
1.1974901489511e-43
2.8522015928874e-43
3.1010046816718e-44
7.4113488224561e-44
7.998703845906e-45
1.9179258197665e-44
2.0546429837823e-45
4.9442617277015e-45
5.2720024889754e-46
1.268369475066e-45
1.3167217352431e-46
3.2723506064346e-46
3.9729530767263e-47
7.7132031883263e-47
3.2097564925889e-47
0
0
0
0
0
0
0
0
0
0
4.1286291296568e-50
2.0118383676681e-50
6.0453689911255e-48
2.9471885626333e-48
4.2547573801143e-46
2.0778144977299e-46
1.9237619197513e-44
9.4231452268106e-45
6.3142444307787e-43
3.1058212841839e-43
1.6099053864568e-41
7.9599963112536e-42
3.3302861851997e-40
1.6567206783183e-40
5.7606212362233e-39
2.8859941122965e-39
8.4929402324573e-38
4.2890909050298e-38
1.0840168755765e-36
5.5242044260954e-37
1.210543795503e-35
6.2322366777882e-36
1.190010950254e-34
6.1954656884084e-35
1.0402962992405e-33
5.4832574226467e-34
8.1009309677442e-33
4.3270197277778e-33
5.652711190835e-32
3.0600609791745e-32
3.5972875181227e-31
1.9656851463602e-31
2.1890446755108e-30
1.1942735513785e-30
1.3769478140346e-29
7.4235582882663e-30
9.6648648786591e-29
5.1665103191111e-29
7.1310620213451e-28
3.8442871057828e-28
4.965612280108e-27
2.7357302018257e-27
3.0993973131409e-26
1.7517710752417e-26
1.7109534104198e-25
9.918142459536e-26
8.3412866031932e-25
4.9583526141364e-25
3.589391012419e-24
2.1895531016467e-24
1.3628530244691e-23
8.5424998860291e-24
4.5685558149864e-23
2.947529363142e-23
1.3519938695378e-22
9.0002959771673e-23
3.5201111074816e-22
2.4271065321266e-22
7.9994812701256e-22
5.7445801239819e-22
1.5698566517312e-21
1.1820247125593e-21
2.6447414662397e-21
2.0973083724489e-21
3.8740832746541e-21
3.2217312853064e-21
5.1331771365895e-21
4.4048833018197e-21
6.4844334296394e-21
5.624557284052e-21
8.1607850214221e-21
7.0341783280919e-21
1.0474468227133e-20
8.8931328649877e-21
1.3672091601907e-20
1.1464217954292e-20
1.7545445142959e-20
1.4798747626907e-20
2.0769481339192e-20
1.8250785963761e-20
2.1769988574484e-20
2.0252469547656e-20
2.180511260844e-20
2.0528201235419e-20
2.1160960537653e-20
2.019672684983e-20
1.9319034323852e-20
1.9018632274781e-20
1.6001015473137e-20
1.6571052607071e-20
1.168551686527e-20
1.2972105141603e-20
7.301852331647e-21
8.8676666121704e-21
3.8037910068238e-21
5.157315563104e-21
1.6330437442706e-21
2.5058076862485e-21
5.897111269323e-22
1.0193139514086e-21
1.8967844427437e-22
3.5878990007093e-22
5.8250222832962e-23
1.1565070828838e-22
1.7924729630848e-23
3.6073181818266e-23
5.6362424959135e-24
1.1275264378357e-23
1.8171909504015e-24
3.5862714069901e-24
5.9972743403028e-25
1.1659462144179e-24
2.0191786451947e-25
3.8730926958886e-25
6.8975001862292e-26
1.3101021157072e-25
2.3721043373802e-26
4.4850411554679e-26
8.1396379094541e-27
1.5413909616463e-26
2.7637457770215e-27
5.2723405057116e-27
9.2300609182545e-28
1.7817385867679e-27
3.0229146624898e-28
5.9198545030889e-28
9.7059056578792e-29
1.929653795836e-28
3.0595684726277e-29
6.1715850036016e-29
9.4887657611523e-30
1.9394754481971e-29
2.9010423766257e-30
6.0000828609245e-30
8.7574656993287e-31
1.8305365198548e-30
2.6132445309901e-31
5.5151832543423e-31
7.7147965953055e-32
1.6427272119455e-31
2.2547835523634e-32
4.8411966498002e-32
6.5279887971512e-33
1.4125935820369e-32
1.8732119108998e-33
4.0833789747312e-33
5.3302722042811e-34
1.1700331863179e-33
1.5047718651662e-34
3.3248443313931e-34
4.2163419667907e-35
9.3742950522659e-35
1.1730390445183e-35
2.6235009398757e-35
3.241551234558e-36
7.2906046973483e-36
8.9001304207873e-37
2.0124977900275e-36
2.4286837411435e-37
5.519935575162e-37
6.5886260830328e-38
1.5048234821515e-37
1.7773682843275e-38
4.0785573738998e-38
4.7689206565551e-39
1.0992713299748e-38
1.2729670554977e-39
2.9470031150119e-39
3.3810880182713e-40
7.860075368072e-40
8.9375825033676e-41
2.0860753009758e-40
2.3517147960904e-41
5.5102516825747e-41
6.1605912927583e-42
1.4488613409158e-41
1.6069376481091e-42
3.7928705008256e-42
4.1744039773793e-43
9.8867864452493e-43
1.0797512807177e-43
2.5669068877643e-43
2.789476929201e-44
6.6308639415396e-44
7.0124078240144e-45
1.722584048087e-44
2.1319987353138e-45
4.0841973387677e-45
1.7163585907723e-45
0
0
0
0
0
0
0
0
5.1437110656071e-62
1.3852787563551e-62
1.0373861434616e-48
4.9544095654526e-49
1.3229470972797e-46
6.3365870251939e-47
8.3217565255761e-45
3.9994775238667e-45
3.4372158086402e-43
1.6585490783439e-43
1.0485392039576e-41
5.0827397386445e-42
2.519874570061e-40
1.2278215061487e-40
4.9715239198755e-39
2.4363009242662e-39
8.2857768388204e-38
4.0862773245214e-38
1.1886425853547e-36
5.9034987558988e-37
1.4904633256212e-35
7.4611557331073e-36
1.6492269558877e-34
8.3302706830272e-35
1.6195953215689e-33
8.2623824385031e-34
1.4253580797174e-32
7.3540541231385e-33
1.1211615548714e-31
5.8560787338274e-32
7.9627932927251e-31
4.2160161614188e-31
5.0884754331437e-30
2.7368844182564e-30
2.9289917739066e-29
1.5828518818073e-29
1.7476966687221e-28
9.2900394275546e-29
1.2300112211999e-27
6.3678741127323e-28
1.034996216735e-26
5.2990427884925e-27
9.3605769082248e-26
4.8463289859602e-26
7.9378809104203e-25
4.2060303572545e-25
5.7808587037237e-24
3.1543858155216e-24
3.5430639367239e-23
1.9933929794406e-23
1.8316525370116e-22
1.0628428325174e-22
8.0106539837862e-22
4.8024390684595e-22
2.9703505098668e-21
1.8452476703604e-21
9.3515350146328e-21
6.042724674949e-21
2.4989362713298e-20
1.6877028484418e-20
5.6461629858751e-20
4.0122287661123e-20
1.0666980697218e-19
8.0635166093837e-20
1.6431514329111e-19
1.3467283439711e-19
2.0099810791671e-19
1.8193456003399e-19
2.0742577654478e-19
2.0041026396468e-19
2.067437527251e-19
2.0026627489634e-19
2.0179001494531e-19
1.9421037789108e-19
2.0266113255481e-19
1.9304142570777e-19
2.1504032555704e-19
1.9766054376074e-19
2.4158426658162e-19
2.139121658802e-19
2.772363592145e-19
2.4220697759545e-19
2.9919381770596e-19
2.6975937475531e-19
3.0131067102736e-19
2.78254034267e-19
2.9633216555251e-19
2.7582590060098e-19
2.7594471929128e-19
2.6378719536454e-19
2.3423796062293e-19
2.348505971047e-19
1.7584028840093e-19
1.8856769442656e-19
1.132777568729e-19
1.3259850693404e-19
6.1093941532406e-20
7.9601173038588e-20
2.7291049533451e-20
4.0097861860349e-20
1.0288656061397e-20
1.6981570237139e-20
3.4518313330922e-21
6.2334920078342e-21
1.1010886962204e-21
2.0915846438202e-21
3.5062605320083e-22
6.7686276929971e-22
1.1396547461375e-22
2.190170298852e-22
3.8027219928447e-23
7.2108143271883e-23
1.3016036285048e-23
2.4301021425196e-23
4.5532563246997e-24
8.3832155040316e-24
1.6173883235726e-24
2.9487937803061e-24
5.7816955810365e-25
1.0500840818076e-24