/*--------------------------------*- C++ -*----------------------------------*\
  =========                 |
  \\      /  F ield         | OpenFOAM: The Open Source CFD Toolbox
   \\    /   O peration     | Website:  https://openfoam.org
    \\  /    A nd           | Version:  7
     \\/     M anipulation  |
\*---------------------------------------------------------------------------*/
FoamFile
{
    version     2.0;
    format      ascii;
    class       volScalarField;
    location    "1.9";
    object      alpha.water;
}
// * * * * * * * * * * * * * * * * * * * * * * * * * * * * * * * * * * * * * //

dimensions      [0 0 0 0 0 0 0];

internalField   nonuniform List<scalar> 
6000
(
0
0
0
0
0
0
0
0
0
0
0
0
0
0
0
0
0
0
0
0
0
0
0
0
0
0
0
0
0
0
0
0
0
0
0
0
0
0
0
0
0
0
0
0
0
0
0
0
0
0
0
0
0
0
0
0
0
0
0
0
0
0
0
0
0
0
0
0
0
0
0
0
0
0
0
0
0
0
0
0
0
0
0
0
0
0
0
0
0
0
0
0
0
0
0
0
0
0
0
0
0
0
0
0
0
0
0
0
0
0
0
0
0
0
0
0
0
0
0
0
0
0
0
0
0
0
0
0
0
0
0
0
0
0
0
0
0
0
0
0
0
0
0
0
0
0
0
0
0
0
0
0
0
0
0
0
0
0
0
0
0
0
0
0
0
0
0
0
0
0
0
0
0
0
0
0
0
0
0
0
0
0
0
0
0
0
0
0
0
0
0
0
0
0
0
0
0
0
0
0
0
0
0
0
0
0
0
0
0
0
0
0
0
0
0
0
0
0
0
0
0
0
0
0
0
0
0
0
0
0
0
0
0
0
0
0
0
0
0
0
0
0
0
0
0
0
0
0
0
0
0
0
0
0
0
0
0
0
0
0
0
0
0
0
0
0
0
0
0
0
0
0
0
0
0
0
0
0
0
0
0
0
0
0
0
0
0
0
0
0
0
0
0
0
0
0
0
0
0
0
0
0
0
0
0
0
0
0
0
0
0
0
0
0
0
0
0
0
0
0
0
0
0
0
0
0
0
0
0
0
0
0
0
0
0
0
0
0
0
0
0
0
0
0
0
0
0
0
0
0
0
0
0
0
0
0
0
0
0
0
0
0
0
0
0
0
0
0
0
0
0
0
0
0
0
0
0
0
0
0
0
0
0
0
0
0
0
0
0
0
0
0
0
0
0
0
0
0
0
0
0
0
0
0
0
0
0
0
0
4.1672587166148e-57
2.546580330058e-55
7.7262747964865e-54
1.5528760072124e-52
2.3255274643055e-51
2.7674350054287e-50
2.7258847701253e-49
2.2857299386187e-48
1.6655445654435e-47
1.0713177284726e-46
6.1585933290933e-46
3.1958650220913e-45
1.5094557627708e-44
6.5340385132104e-44
2.6075130445505e-43
9.6416795753797e-43
3.3179654384482e-42
1.0667452646765e-41
3.2151500709061e-41
9.1119736723798e-41
2.4348682112258e-40
6.1496953651793e-40
1.4713258856055e-39
3.3413001106918e-39
7.2155767171958e-39
1.4842446329889e-38
2.9126596766397e-38
5.4606162352123e-38
9.7933727769447e-38
1.6822502200916e-37
2.7708145461771e-37
4.3806646949823e-37
6.6544788035452e-37
9.7213717546944e-37
1.3669494562661e-36
1.8515592525456e-36
2.4177434826651e-36
3.0456330494839e-36
3.7036420908039e-36
4.3504757004406e-36
4.9392086566597e-36
5.4229208316756e-36
5.7609342134658e-36
5.9245108433461e-36
5.9008745154511e-36
5.6947913252036e-36
5.3274555247474e-36
4.8329876450212e-36
4.2533339031019e-36
3.6325936224027e-36
3.011792192277e-36
2.4248997983143e-36
1.8965114465919e-36
1.4412370852035e-36
1.0645167679682e-36
7.6439739836697e-37
5.3375519783161e-37
3.6251163762032e-37
2.3952675344088e-37
1.5400276363886e-37
9.6367435388851e-38
5.8700188295703e-38
3.4812202934894e-38
2.0103756098213e-38
1.1306889732891e-38
6.1942918952944e-39
3.3058333328926e-39
1.7189575376535e-39
8.7095266909153e-40
4.3004681342336e-40
2.0695285296601e-40
9.7073522072209e-41
4.4385344090934e-41
1.9784266451295e-41
8.5974689235393e-42
3.6426457655309e-42
1.5048071288859e-42
6.0615143954642e-43
2.3808568474962e-43
9.1190464355687e-44
3.405952750878e-44
1.2405278661397e-44
4.4061145013598e-45
1.5261094122335e-45
5.154570132075e-46
1.6977311792816e-46
5.4526147705819e-47
1.7076014003053e-47
5.2143136092463e-48
1.5524462309896e-48
6.2611018354163e-49
0
0
0
0
0
0
0
-3.8499367027365e-47
-2.166372972305e-45
-6.0419889610895e-44
-1.1131722264448e-42
-1.523442360177e-41
-1.6509993209142e-40
-1.4748347532965e-39
-1.1160028538278e-38
-7.2943221361651e-38
-4.1775893467312e-37
-2.118748665629e-36
-9.5881289295587e-36
-3.8904335868116e-35
-1.4181684156897e-34
-4.6361788785102e-34
-1.3488107208835e-33
-3.4248238386708e-33
-7.2212811449125e-33
-1.0687866637805e-32
1.8000970674818e-34
7.9559755279097e-32
3.9500637859709e-31
1.3963046102225e-30
4.1669485749878e-30
1.108910071296e-29
2.6989350024587e-29
6.093239970098e-29
1.2875155285725e-28
2.5620744417546e-28
4.8233342166808e-28
8.6209595808852e-28
1.4670873695359e-27
2.3827632379397e-27
3.7009481964392e-27
5.5071048248423e-27
7.8631681986376e-27
1.0788339690414e-26
1.4241645952943e-26
1.8110758506747e-26
2.221111056145e-26
2.6297632287444e-26
3.008876610873e-26
3.3299498906454e-26
3.5677796557389e-26
3.7037758824283e-26
3.7283362454025e-26
3.6418670434078e-26
3.4543275034421e-26
3.1834717601371e-26
2.8521945728797e-26
2.485505134611e-26
2.1076469493362e-26
1.7397728828659e-26
1.3984161230139e-26
1.0948179361025e-26
8.3502142243895e-27
6.2054061757752e-27
4.4937261391258e-27
3.1712934355069e-27
2.1810955089575e-27
1.4619223668255e-27
9.5494579328179e-28
6.0788875331719e-28
3.7708697393208e-28
2.2793377043327e-28
1.3424599417872e-28
7.703615181318e-29
4.3068885118564e-29
2.3457648789144e-29
1.2446129007991e-29
6.4326753382111e-30
3.2384445254236e-30
1.5879986405406e-30
7.5842941006115e-31
3.5278904365626e-31
1.5982109412293e-31
7.0510985929049e-32
3.0294780453523e-32
1.2675104914909e-32
5.1640668834894e-33
2.0486680996282e-33
7.9135709507397e-34
2.9762865286299e-34
1.0898249033303e-34
3.8850339897305e-35
1.348227160509e-35
4.5544189018154e-36
1.4975221093211e-36
4.7923617454545e-37
1.4925349641998e-37
4.5233174338018e-38
1.3338367362415e-38
5.2870042603537e-39
0
0
0
0
0
0
-1.7078624788801e-45
-1.0057900001814e-43
-2.9385422744785e-42
-5.6785997078683e-41
-8.1650884290799e-40
-9.3172887775631e-39
-8.7886521849654e-38
-7.0478303447375e-37
-4.9045686300091e-36
-3.0084931556457e-35
-1.6467959476128e-34
-8.1240983200158e-34
-3.6415653104032e-33
-1.4932212453656e-32
-5.633375378948e-32
-1.9648890000683e-31
-6.3627679298588e-31
-1.9197894748229e-30
-5.4138272892325e-30
-1.430709905529e-29
-3.5512032081271e-29
-8.294575127241e-29
-1.8258522234538e-28
-3.792121883871e-28
-7.4362353633216e-28
-1.3771142410783e-27
-2.4073981821079e-27
-3.967547860499e-27
-6.1484354771252e-27
-8.917455411273e-27
-1.200370331177e-26
-1.4762680664238e-26
-1.604998706234e-26
-1.414849657105e-26
-6.80027158083e-27
8.61377311475e-27
3.4730045430494e-26
7.372006374978e-26
1.2674358384147e-25
1.9344967419677e-25
2.7165299635425e-25
3.57293294387e-25
4.4473335441369e-25
5.2737612630481e-25
5.9850518710922e-25
6.521960449213e-25
6.8412536689035e-25
6.9212676555871e-25
6.763986751112e-25
6.3934577418697e-25
5.8510994424888e-25
5.1890175428354e-25
4.4626802562081e-25
3.7242356927159e-25
3.0174244873178e-25
2.3745794019595e-25
1.8157357989117e-25
1.3495060981186e-25
9.751545829027e-26
6.8525375086489e-26
4.6837856041337e-26
3.114484072264e-26
2.0150420750764e-26
1.2686665137046e-26
7.7736512911288e-27
4.636168808624e-27
2.6914533225896e-27
1.5210373648173e-27
8.3684705922882e-28
4.4825948484405e-28
2.3378178198252e-28
1.187154109775e-28
5.8699356430461e-29
2.826188551243e-29
1.3250111017933e-29
6.0491570515411e-30
2.689248075583e-30
1.1642025871631e-30
4.9077930656448e-31
2.0146492082129e-31
8.0530578410878e-32
3.1344412139314e-32
1.1879115185171e-32
4.3834526491325e-33
1.5748427590887e-33
5.5083787564733e-34
1.8756410995902e-34
6.2170608067647e-35
2.0058401811264e-35
6.2986284288152e-36
1.9248318185268e-36
5.7238909906326e-37
1.65612116847e-37
6.3952169049522e-38
0
0
0
0
0
5.669794358869e-47
-4.6405896866939e-44
-2.7955674808352e-42
-8.1623720414637e-41
-1.5679506698048e-39
-2.2370295448498e-38
-2.5313032802663e-37
-2.3673842444763e-36
-1.8826049545891e-35
-1.2995660102685e-34
-7.9109020915181e-34
-4.29952780404e-33
-2.1072661675089e-32
-9.3905111163103e-32
-3.8310035644663e-31
-1.4391825463415e-30
-5.0033757797651e-30
-1.6166806972526e-29
-4.8733417929496e-29
-1.3749768219639e-28
-3.641505789981e-28
-9.0757987326178e-28
-2.1334151882505e-27
-4.7391588701135e-27
-9.9655270548877e-27
-1.9865717327098e-26
-3.7587219757355e-26
-6.7565778680013e-26
-1.1546892966723e-25
-1.8768169320759e-25
-2.9013547774804e-25
-4.2637955425211e-25
-5.9500074083808e-25
-7.8678996231783e-25
-9.8236145561057e-25
-1.1511355923187e-24
-1.2525738893697e-24
-1.2402217002747e-24
-1.0684814624197e-24
-7.0123789062864e-25
-1.2071582747622e-25
6.6546781017846e-25
1.6209976329538e-24
2.6825729624225e-24
3.7668188066235e-24
4.7813371181029e-24
5.6378180669962e-24
6.2646187665935e-24
6.6163577897682e-24
6.6788122492825e-24
6.468512384765e-24
6.0275890956181e-24
5.4153406687663e-24
4.6984481954694e-24
3.9417353928547e-24
3.2009281119304e-24
2.5182019127048e-24
1.9206150152293e-24
1.4209727997355e-24
1.0203491657931e-24
7.1141034646151e-25
4.8179799174557e-25
3.1704956153503e-25
2.027835947724e-25
1.2609358844598e-25
7.6244025250158e-26
4.4839229198006e-26
2.5652342079196e-26
1.4278441522183e-26
7.7335699024697e-27
4.0764121356429e-27
2.0913270868811e-27
1.0443656349357e-27
5.0769772255981e-28
2.4027571176823e-28
1.107111763159e-28
4.9667243449866e-29
2.1695068184449e-29
9.2273110790883e-30
3.8213677941958e-30
1.5409694481398e-30
6.0505993083736e-31
2.3132646841798e-31
8.6112060766202e-32
3.1210396222105e-32
1.1013159390867e-32
3.783366129531e-33
1.26523391197e-33
4.1186718111427e-34
1.3049714966492e-34
4.0240326987836e-35
1.2075171331616e-35
3.5257097624875e-36
1.001536420104e-36
3.7711879557295e-37
0
0
0
0
0
1.6890454036887e-45
-6.2085830946578e-43
-3.861842839421e-41
-1.1319797767374e-39
-2.1691550405216e-38
-3.0799688625936e-37
-3.4648429769705e-36
-3.2200636654671e-35
-2.5440507772683e-34
-1.7446968979978e-33
-1.0551880356452e-32
-5.6985243277286e-32
-2.7757138058554e-31
-1.2295597564596e-30
-4.9874980527624e-30
-1.8634283810962e-29
-6.4448933945272e-29
-2.0724068220939e-28
-6.2191773846432e-28
-1.7475558436255e-27
-4.6114850476718e-27
-1.1457435785693e-26
-2.6863874018359e-26
-5.9561955123638e-26
-1.2510380659976e-25
-2.4932225361079e-25
-4.7210501571001e-25
-8.503817159713e-25
-1.4585092315899e-24
-2.383710350215e-24
-3.7142668841053e-24
-5.5191885506527e-24
-7.8202669590706e-24
-1.0560548206469e-23
-1.3576539476931e-23
-1.6583678569387e-23
-1.918443308154e-23
-2.0905021114186e-23
-2.1260316032041e-23
-1.9838399066549e-23
-1.638881640452e-23
-1.0894491212448e-23
-3.6083264394609e-24
4.957835042956e-24
1.4093534484959e-23
2.2989128191131e-23
3.0854628803618e-23
3.7033795546688e-23
4.109106709856e-23
4.2856152926245e-23
4.2421470098511e-23
4.0098106284477e-23
3.6343878185224e-23
3.168069663271e-23
2.6617616988263e-23
2.159166012977e-23
1.6932465769726e-23
1.285089520705e-23
9.4472012405048e-24
6.7319864522226e-24
4.6528352378294e-24
3.1206958223539e-24
2.0320672758032e-24
1.2851256272541e-24
7.8962484705229e-25
4.7151217448293e-25
2.7370077558861e-25
1.5447966995175e-25
8.4794694650187e-26
4.5273898753942e-26
2.3516884618051e-26
1.188576025086e-26
5.845806954394e-27
2.7982099006051e-27
1.3036943062972e-27
5.9124290094807e-28
2.610236032331e-28
1.1218645905435e-28
4.694241337413e-29
1.9123469507285e-29
7.5849176553991e-30
2.9289994635997e-30
1.1012048013678e-30
4.0307727362404e-31
1.4363686512769e-31
4.9828967503655e-32
1.6827214549427e-32
5.5313102260981e-33
1.7696825950045e-33
5.5103035676072e-34
1.6696471817962e-34
4.9225961066774e-35
1.4119855563196e-35
3.9397984795072e-36
1.4475674716874e-36
0
0
0
0
5.5528673025361e-57
2.5073228256291e-44
-5.4374447044402e-42
-3.5227379170808e-40
-1.0390863694391e-38
-1.9889648530423e-37
-2.8133508162557e-36
-3.1489036610207e-35
-2.9098053796289e-34
-2.2851093134118e-33
-1.5574488392062e-32
-9.3607330862926e-32
-5.0237536219572e-31
-2.4318823616447e-30
-1.070645756175e-29
-4.3165828571333e-29
-1.6031288780178e-28
-5.5120114732171e-28
-1.7621822133509e-27
-5.2581811417842e-27
-1.4692949860619e-26
-3.8560870076934e-26
-9.5297183658847e-26
-2.2228713635789e-25
-4.9039367226583e-25
-1.025104676711e-24
-2.0337200577481e-24
-3.8347499133565e-24
-6.880969859293e-24
-1.176236937924e-23
-1.9171632539942e-23
-2.9815720840394e-23
-4.4265330755836e-23
-6.2750514028385e-23
-8.4933387002003e-23
-1.0971155716139e-22
-1.3511976449139e-22
-1.5839341820624e-22
-1.7623133725426e-22
-1.8524857776807e-22
-1.825546362334e-22
-1.663443852799e-22
-1.3636612821455e-22
-9.4144319305161e-23
-4.2883850888666e-23
1.2943769851961e-23
6.8255294869563e-23
1.1811696979941e-22
1.5845534689858e-22
1.865794043576e-22
2.0142736461006e-22
2.0351973611418e-22
1.9466490513872e-22
1.7750866447682e-22
1.5503588498088e-22
1.3012180504201e-22
1.0520015234825e-22
8.2077074178522e-23
6.1884648397756e-23
4.5143083420437e-23
3.1889421553973e-23
2.1831312711553e-23
1.4493327467567e-23
9.3356955756323e-24
5.8373706207106e-24
3.5444939684114e-24
2.0907852894248e-24
1.1984386392913e-24
6.6771365610767e-25
3.6168950558844e-25
1.9052141496294e-25
9.7609998497303e-26
4.8647243529679e-26
2.3588357464916e-26
1.1129273207933e-26
5.1098976874895e-27
2.2833555841466e-27
9.9307904755536e-28
4.2040668116343e-28
1.732412645004e-28
6.9493383530617e-29
2.7136543129907e-29
1.0315430958575e-29
3.817149795251e-30
1.374996559637e-30
4.8212615924793e-31
1.6454969653949e-31
5.4662058386265e-32
1.7672467262248e-32
5.5602602172383e-33
1.7023106478466e-33
5.0708637050372e-34
1.469510627049e-34
4.1424187539789e-35
1.1356984861607e-35
4.0738261612153e-36
0
0
0
0
1.7153706324913e-55
2.472531614543e-43
-3.4927836558349e-41
-2.3834141923138e-39
-7.0907896212584e-38
-1.3572041160588e-36
-1.9136212031545e-35
-2.1319462631723e-34
-1.9594627210991e-33
-1.5298669306583e-32
-1.0364065261507e-31
-6.1906590128664e-31
-3.3016678326201e-30
-1.5882114724557e-29
-6.9480587494083e-29
-2.7835884555089e-28
-1.0272529339235e-27
-3.5096156888969e-27
-1.1149005954603e-26
-3.3056041124383e-26
-9.1779854553687e-26
-2.3933225997276e-25
-5.8768512872085e-25
-1.3620290362928e-24
-2.9855670676762e-24
-6.2011313985361e-24
-1.2224672999874e-23
-2.2906839460708e-23
-4.0852601135327e-23
-6.9421516885078e-23
-1.1251487910249e-22
-1.7406634319201e-22
-2.572030876651e-22
-3.6313774431109e-22
-4.8997196356263e-22
-6.3170557529912e-22
-7.7780377980469e-22
-9.1363587493627e-22
-1.0219443794993e-21
-1.0852543109873e-21
-1.0888511572568e-21
-1.023730284958e-21
-8.8883347464197e-22
-6.9198686402582e-22
-4.4922767144851e-22
-1.8258443088078e-22
8.3250825935024e-23
3.2465929859256e-22
5.2246772127378e-22
6.6430901817391e-22
7.456027771454e-22
7.6912878999536e-22
7.4347308339825e-22
6.808206634791e-22
5.9462003986855e-22
4.9756494980494e-22
4.001754248435e-22
3.1007279871919e-22
2.3188309303339e-22
1.6760144353026e-22
1.1721402611124e-22
7.9391598260872e-23
5.2118757762927e-23
3.3183028494964e-23
2.0501031030389e-23
1.2296281200662e-23
7.1627940959948e-24
4.0536866072238e-24
2.2294886018645e-24
1.1919525834077e-24
6.1959495226171e-25
3.1321004452245e-25
1.5399795631124e-25
7.3656034119343e-26
3.4274376498661e-26
1.5518308456033e-26
6.8370875914631e-27
2.9314424447298e-27
1.2232075073728e-27
4.9675971845968e-28
1.9635098286252e-28
7.5538349482638e-29
2.8284673341325e-29
1.0308134090759e-29
3.6563229027844e-30
1.2622036506804e-30
4.240469826727e-31
1.3863467056932e-31
4.4103306104613e-32
1.365130961578e-32
4.1109119973018e-33
1.2042422624645e-33
3.4312057977871e-34
9.5077224705803e-35
2.5617503557795e-35
8.9742738694126e-36
0
0
0
0
2.6297681842334e-54
1.8218315418334e-42
-1.7448063734501e-40
-1.2739470528567e-38
-3.8330236210992e-37
-7.3440374185963e-36
-1.0327878710828e-34
-1.1456977693975e-33
-1.0475742348711e-32
-8.1326933305401e-32
-5.4765827208663e-31
-3.2510974128072e-30
-1.7229914039182e-29
-8.2351925989633e-29
-3.5794157198115e-28
-1.4246497561353e-27
-5.2228401579824e-27
-1.7724984207839e-26
-5.5927837696819e-26
-1.6469283940468e-25
-4.5411708057537e-25
-1.1759315651625e-24
-2.8671482366129e-24
-6.5975575902479e-24
-1.4357752785649e-23
-2.9605484072724e-23
-5.7938756452265e-23
-1.0777809131968e-22
-1.9082637231096e-22
-3.2196406212053e-22
-5.181851689193e-22
-7.9625073246912e-22
-1.1689805738658e-21
-1.6405177532314e-21
-2.2014029661278e-21
-2.8247308437238e-21
-3.4648329620009e-21
-4.0596849973719e-21
-4.5375243796779e-21
-4.827111432237e-21
-4.8699484366765e-21
-4.6319433762492e-21
-4.1117813267344e-21
-3.3437945807788e-21
-2.3943138573405e-21
-1.3520237350474e-21
-3.1429365279245e-22
6.2761168416643e-22
1.4013826665747e-21
1.9621503424544e-21
2.2953779371535e-21
2.4143074749242e-21
2.353275730041e-21
2.1588833425858e-21
1.8810799329478e-21
1.5658077001998e-21
1.2501406857317e-21
9.601124884192e-22
7.1083749721701e-22
5.0820011545065e-22
3.5131553463027e-22
2.3508792605945e-22
1.5241315865315e-22
9.5807001849619e-23
5.8428633402596e-23
3.4588839612782e-23
1.9884762111524e-23
1.1105580320308e-23
6.0274751405386e-24
3.1799343140745e-24
1.6311212875031e-24
8.1361868304241e-25
3.9472073259231e-25
1.8627293649037e-25
8.5515935445983e-26
3.819619034881e-26
1.6599676728651e-26
7.0195637578417e-27
2.8884836634453e-27
1.1566231605166e-27
4.5069596343921e-28
1.7090226622766e-28
6.3064051986526e-29
2.2645311850379e-29
7.9126965304797e-30
2.6903121526046e-30
8.8999932607174e-31
2.8645537591465e-31
8.9695463516302e-32
2.732061220404e-32
8.0941508612473e-33
2.3321779110136e-33
6.5343770990007e-34
1.7800630437867e-34
4.7139568837911e-35
1.6130909422878e-35
0
0
0
0
2.668768473824e-53
1.0696666938368e-41
-6.9940483593037e-40
-5.5941013613373e-38
-1.7080186374708e-36
-3.2800095806184e-35
-4.6035415394343e-34
-5.086841222167e-33
-4.6281970731285e-32
-3.5731262841701e-31
-2.3919192913925e-30
-1.4111742620799e-29
-7.4313920165073e-29
-3.5288892445952e-28
-1.5237172689766e-27
-6.0239854655852e-27
-2.1934274251851e-26
-7.3926472478505e-26
-2.31630295248e-25
-6.7725058178863e-25
-1.8539705723609e-24
-4.765736528302e-24
-1.1533592262531e-23
-2.634024922748e-23
-5.6885966105927e-23
-1.1639606125131e-22
-2.2602463695465e-22
-4.1717667144264e-22
-7.3286573222077e-22
-1.2268639700409e-21
-1.9592879009187e-21
-2.987621343685e-21
-4.3531457302714e-21
-6.064265169256e-21
-8.0799396728972e-21
-1.0297791404511e-20
-1.2551764878766e-20
-1.462302836378e-20
-1.6265072739469e-20
-1.7240245835029e-20
-1.7361292563543e-20
-1.652906688453e-20
-1.4757395706758e-20
-1.2178419955977e-20
-9.0261120108871e-21
-5.6008770377327e-21
-2.2226839314442e-21
8.1727231391914e-22
3.2964844965048e-21
5.0853521144409e-21
6.1526628472849e-21
6.5538186383277e-21
6.4068451310278e-21
5.8629950659409e-21
5.0785714228948e-21
4.1928794987408e-21
3.3147474028237e-21
2.5176482472021e-21
1.8417092292176e-21
1.3000522587916e-21
8.8690497001753e-22
5.8547539363158e-22
3.7436872446105e-22
2.3206993113614e-22
1.3956427917158e-22
8.1474567447269e-23
4.6192854103523e-23
2.5445298094361e-23
1.3622699896089e-23
7.0901779597444e-24
3.5882402235352e-24
1.7660742520426e-24
8.454657617145e-25
3.9371875343117e-25
1.7836594874232e-25
7.8613615574038e-26
3.371016446427e-26
1.4064130981175e-26
5.7090093869424e-27
2.2547954420171e-27
8.6646480221816e-28
3.2395686195555e-28
1.1784392891422e-28
4.1705980887276e-29
1.4359644402663e-29
4.8097432490024e-30
1.5671365442868e-30
4.9666931706634e-31
1.5309706039902e-31
4.5894780156329e-32
1.3378540569953e-32
3.7918335226225e-33
1.0447797344565e-33
2.7981352496655e-34
7.2829641494966e-35
2.4346134364486e-35
0
0
0
0
2.016707059578e-52
5.2118617966155e-41
-2.2761128285414e-39
-2.0712677846112e-37
-6.4462036117793e-36
-1.2426482129353e-34
-1.7419342617537e-33
-1.9180829512077e-32
-1.736949653831e-31
-1.3337424954644e-30
-8.876113850945e-30
-5.2044800071381e-29
-2.7232775211332e-28
-1.2847293712833e-27
-5.5102347895425e-27
-2.1636640734909e-26
-7.8238785190868e-26
-2.6184664251892e-25
-8.1460538954879e-25
-2.3646326487308e-24
-6.4259525091337e-24
-1.6396213128411e-23
-3.9383650410624e-23
-8.9262431374287e-23
-1.9129855941209e-22
-3.8838589489452e-22
-7.482743055179e-22
-1.3701442900674e-21
-2.3876622966824e-21
-3.964671122749e-21
-6.2795728412836e-21
-9.495898526761e-21
-1.3719852061573e-20
-1.8950405771468e-20
-2.5032598027241e-20
-3.1628148200835e-20
-3.8217398413073e-20
-4.4141735622043e-20
-4.8686418540476e-20
-5.119232728216e-20
-5.117507627855e-20
-4.8424800752275e-20
-4.3062036977766e-20
-3.5534409588796e-20
-2.655279588385e-20
-1.6980152846803e-20
-7.6970487427653e-21
5.2777026023963e-22
7.1364899608353e-21
1.183468974088e-20
1.45927917897e-20
1.560366836296e-20
1.5211794295971e-20
1.3832623787397e-20
1.1879209268206e-20
9.7078043425631e-21
7.5873956439823e-21
5.6918729773874e-21
4.1093150742281e-21
2.8611495319622e-21
1.9244064283125e-21
1.2520949283993e-21
7.889715338967e-22
4.8193393146218e-22
2.856049534487e-22
1.6431844577783e-22
9.1830466170313e-23
4.9872133064416e-23
2.6329918129107e-23
1.3516856123862e-23
6.7487080146218e-24
3.2775076367445e-24
1.5484044962229e-24
7.1165071313856e-25
3.1820256797137e-25
1.3842005215156e-25
5.8580249478404e-26
2.4118739847874e-26
9.6605244490161e-27
3.7642539516716e-27
1.4268453049458e-27
5.2611474022475e-28
1.8870066352162e-28
6.5832001463817e-29
2.2338277178951e-29
7.3720124226366e-30
2.3660118563285e-30
7.3842836393741e-31
2.240894849516e-31
6.6116799350964e-32
1.8963964631551e-32
5.2870936738839e-33
1.4325592268926e-33
3.7717802950369e-34
9.6481058598377e-35
3.1507203548929e-35
0
0
0
0
1.2104620008207e-51
2.1670491325514e-40
-5.9406651560659e-39
-6.5821993409713e-37
-2.1006464137897e-35
-4.0729742620641e-34
-5.7077221418627e-33
-6.2661235092778e-32
-5.6494370447649e-31
-4.3153404570057e-30
-2.855361143746e-29
-1.6640055095016e-28
-8.6516178506599e-28
-4.0547329249535e-27
-1.7274365737023e-26
-6.7367908430179e-26
-2.4192269267933e-25
-8.0400889825405e-25
-2.4836750599781e-24
-7.1585283999094e-24
-1.9314874715897e-23
-4.8929949325182e-23
-1.1668229563743e-22
-2.6253809118007e-22
-5.5852148950336e-22
-1.125528632534e-21
-2.1521220521875e-21
-3.9103779853569e-21
-6.7606508432242e-21
-1.1134861277829e-20
-1.7488405758085e-20
-2.6215694320124e-20
-3.7534208894267e-20
-5.1355345042681e-20
-6.7173267015277e-20
-8.4010046249962e-20
-1.0045127849501e-19
-1.1478895995574e-19
-1.2526048050622e-19
-1.3034222944902e-19
-1.2903433185332e-19
-1.2106855362716e-19
-1.0698746401105e-19
-8.8074694194127e-20
-6.6152904422865e-20
-4.3296127081039e-20
-2.1518497068726e-20
-2.5000887899918e-21
1.2604051734776e-20
2.3247705701089e-20
2.9469804376092e-20
3.178339009464e-20
3.1011053232408e-20
2.8105690854036e-20
2.3991511984605e-20
1.9449264714878e-20
1.5055334473975e-20
1.1170896016534e-20
7.9680343019308e-21
5.4761043854016e-21
3.6329743982037e-21
2.3302644029351e-21
1.4470370105888e-21
8.7091976724797e-22
5.0852916338585e-22
2.8829483712539e-22
1.5878862096362e-22
8.5012172699473e-23
4.4257342418063e-23
2.2410299690579e-23
1.1039352233744e-23
5.2907357899388e-24
2.4670785390925e-24
1.1192931003635e-24
4.9406680924428e-25
2.1217189730473e-25
8.8639150843235e-26
3.6022388819089e-26
1.4239747471639e-26
5.4750661777765e-27
2.0474305033126e-27
7.4462520616612e-28
2.6336082126468e-28
9.0578438520152e-29
3.0292314128203e-29
9.8502046281676e-30
3.1140894508472e-30
9.5709191252681e-31
2.8593795273471e-31
8.3030753052828e-32
2.3431637792199e-32
6.4254555379263e-33
1.711895336097e-33
4.4304710019611e-34
1.1136331096851e-34
3.5523877178428e-35
0
0
0
0
6.0109331084205e-51
7.8472098611814e-40
-1.1629782653338e-38
-1.8164082629367e-36
-5.9944355634633e-35
-1.1720026515446e-33
-1.6438135244221e-32
-1.8003812592806e-31
-1.6166659904983e-30
-1.2287263542938e-29
-8.0845724490633e-29
-4.6830222286281e-28
-2.4194619401219e-27
-1.1265372533913e-26
-4.7674566644865e-26
-1.8467192053377e-25
-6.5867072502913e-25
-2.1741705998385e-24
-6.6708153670715e-24
-1.9097621177567e-23
-5.1185128064988e-23
-1.2880939219588e-22
-3.0515215305126e-22
-6.8209890081981e-22
-1.4415318785695e-21
-2.8855706205309e-21
-5.4798156760679e-21
-9.8865303055509e-21
-1.6967204476309e-20
-2.772956369188e-20
-4.319735046292e-20
-6.4195910572244e-20
-9.1073201843071e-20
-1.2340907032201e-19
-1.5979410073787e-19
-1.9776826575879e-19
-2.3398713223427e-19
-2.6462839724305e-19
-2.8597836427298e-19
-2.9507352177365e-19
-2.9024446005671e-19
-2.7143175472704e-19
-2.4020733796866e-19
-1.9951333536742e-19
-1.5319357085605e-19
-1.0542382026927e-19
-6.0146404044696e-20
-2.0595262371713e-20
1.1028407790375e-20
3.3697220519072e-20
4.7511564596686e-20
5.3493080153798e-20
5.3271611250946e-20
4.8735993879224e-20
4.1718303569033e-20
3.3763234850086e-20
2.6005741407243e-20
1.9150995255827e-20
1.3529907799533e-20
9.195046384781e-21
6.0247359764307e-21
3.8130226804688e-21
2.3348231050114e-21
1.3851509214276e-21
7.9709660651589e-22
4.4536785716579e-22
2.4180139644525e-22
1.2764045199186e-22
6.5537758797854e-23
3.2740724825135e-23
1.5916381364056e-23
7.5297927864892e-24
3.4665390105158e-24
1.5529367119629e-24
6.7688244201776e-25
2.870288442324e-25
1.1839688350704e-25
4.7501678780094e-26
1.8534753569515e-26
7.032883129457e-27
2.5948510218322e-27
9.3087425347271e-28
3.2466731903923e-28
1.1008432930101e-28
3.6284560199303e-29
1.1625084095338e-29
3.6200439768819e-30
1.0955617244881e-30
3.2219744993685e-31
9.207061281039e-32
2.5561064301898e-32
6.8934145441913e-33
1.8055891417791e-33
4.5925789860036e-34
1.1341327219384e-34
3.5333785376308e-35
0
0
0
0
2.5400338672789e-50
2.5133202493085e-39
-1.2100076342116e-38
-4.3807587213671e-36
-1.5133050067885e-34
-2.9936450263664e-33
-4.208682626413e-32
-4.6023876035561e-31
-4.1180977207601e-30
-3.1152102868522e-29
-2.0385927535416e-28
-1.1739069533659e-27
-6.0272861885512e-27
-2.7883991656681e-26
-1.1723379481585e-25
-4.5113686757475e-25
-1.5985742501475e-24
-5.2427342572835e-24
-1.5984816965052e-23
-4.5483310502652e-23
-1.2118413711377e-22
-3.0322072171426e-22
-7.1433399566555e-22
-1.587974781886e-21
-3.3376051605069e-21
-6.6438469037329e-21
-1.2544437959023e-20
-2.2495990750151e-20
-3.83608842433e-20
-6.2265678418178e-20
-9.628948734481e-20
-1.4197930483825e-19
-1.9975287403233e-19
-2.6832272723434e-19
-3.4432776112567e-19
-4.2235620877823e-19
-4.9546400046558e-19
-5.5614598840087e-19
-5.9755566163392e-19
-6.1466621175782e-19
-6.0507894184059e-19
-5.693130743014e-19
-5.1058811445127e-19
-4.3424436514733e-19
-3.4698249756566e-19
-2.5605377227275e-19
-1.6846493375007e-19
-9.0236842106095e-20
-2.5782375915904e-20
2.2495150028746e-20
5.4288091694956e-20
7.1125295937849e-20
7.5833660007204e-20
7.1863807274281e-20
6.2646212165466e-20
5.1108844005919e-20
3.9417617685601e-20
2.8929524069469e-20
2.0299874967681e-20
1.3668178587587e-20
8.8563215386324e-21
5.5357049042722e-21
3.3447388467942e-21
1.9569555144377e-21
1.1103689780334e-21
6.1170676261652e-22
3.2750553952185e-22
1.705284772451e-22
8.6394152866329e-23
4.2599306379873e-23
2.0445762953452e-23
9.551795812736e-24
4.3431826071324e-24
1.9218041958121e-24
8.2739449215137e-25
3.4652904598131e-25
1.4116076378004e-25
5.5919836645623e-26
2.1539400825333e-26
8.0661034270171e-27
2.9363684446236e-27
1.0390445384482e-27
3.5735449290498e-28
1.1944635297583e-28
3.8799207676135e-29
1.2246608783962e-29
3.7559172766873e-30
1.1191381356854e-30
3.2394722183502e-31
9.1082989835291e-32
2.4872290377532e-32
6.5954690982756e-33
1.6980691986586e-33
4.2439018299169e-34
1.0294085991556e-34
3.1316816689926e-35
0
0
0
0
9.3237200798734e-50
7.2065786078953e-39
2.3729976471461e-38
-9.2386123215518e-36
-3.4036689558023e-34
-6.8442819407194e-33
-9.6637802395493e-32
-1.056232699236e-30
-9.4232146094571e-30
-7.0977005375175e-29
-4.6208214023709e-28
-2.6457157735823e-27
-1.3502088796189e-26
-6.2075093393823e-26
-2.5933850280158e-25
-9.9172769893895e-25
-3.4926153345088e-24
-1.1387105389535e-23
-3.4525126781616e-23
-9.7724742272181e-23
-2.5910651728122e-22
-6.4537518873748e-22
-1.5138597010492e-21
-3.3513941623584e-21
-7.0150424665722e-21
-1.390568649415e-20
-2.6140809268034e-20
-4.6660494216019e-20
-7.917146323343e-20
-1.2782652292395e-19
-1.9657294749745e-19
-2.8819620260395e-19
-4.0322070281642e-19
-5.3895225102086e-19
-6.8897969976706e-19
-8.4335305478441e-19
-9.8946723359938e-19
-1.1135159087036e-18
-1.2023091815965e-18
-1.2452284616844e-18
-1.2360291676163e-18
-1.174100426887e-18
-1.0647863242103e-18
-9.1858512853085e-19
-7.4940925801425e-19
-5.7238954392605e-19
-4.0176438551493e-19
-2.4922636120837e-19
-1.2287391527894e-19
-2.6776761442402e-20
3.8880105484404e-20
7.7137333675885e-20
9.3219538031891e-20
9.3329441576764e-20
8.3534275323375e-20
6.895338853355e-20
5.3342987641135e-20
3.9050691127075e-20
2.7228734902699e-20
1.8169044945615e-20
1.1645194500275e-20
7.1908260765663e-21
4.2886548886686e-21
2.4756719750524e-21
1.3856683761644e-21
7.5307333527166e-22
3.9783476311004e-22
2.0445463367631e-22
1.0226777673799e-22
4.9801420005243e-23
2.3612079527502e-23
1.0898881485984e-23
4.896755574704e-24
2.1409853121208e-24
9.1072775611907e-25
3.7681254225635e-25
1.5160881030449e-25
5.9305911625665e-26
2.2551269645136e-26
8.3345236459706e-27
2.9934726717687e-27
1.0447464446681e-27
3.5428264893703e-28
1.1672341679984e-28
3.735959349684e-29
1.1615779546798e-29
3.5080035678119e-30
1.028955020636e-30
2.930970028715e-31
8.106859016828e-32
2.1770114169731e-32
5.6750355999488e-33
1.435823767138e-33
3.5251270390626e-34
8.3964786197451e-35
2.4937179523401e-35
0
0
0
0
3.0200913410264e-49
1.868027132285e-38
1.8612181922848e-37
-1.6896508143816e-35
-6.8479717039237e-34
-1.4089710293866e-32
-2.0032657909787e-31
-2.1913837776623e-30
-1.9508980973628e-29
-1.4638886215647e-28
-9.4847671628799e-28
-5.4012444078714e-27
-2.7405004941558e-26
-1.2524029175916e-25
-5.2009719793332e-25
-1.977251571025e-24
-6.9246162701645e-24
-2.2460018322603e-23
-6.7779441000486e-23
-1.9105770375545e-22
-5.0473137205874e-22
-1.2531700020849e-21
-2.9311789867269e-21
-6.4717588639179e-21
-1.3510946425539e-20
-2.6709976518595e-20
-5.0068119147821e-20
-8.910094605494e-20
-1.5071081613816e-19
-2.4257796388926e-19
-3.7199920996078e-19
-5.4431490729792e-19
-7.6130573122365e-19
-1.0199875020369e-18
-1.3119113684398e-18
-1.6226157188861e-18
-1.9309318673156e-18
-2.2087918970084e-18
-2.4232703926721e-18
-2.5422862379605e-18
-2.5431108741502e-18
-2.4201176923035e-18
-2.1875968268897e-18
-1.8759087222955e-18
-1.5229894059562e-18
-1.1653816437129e-18
-8.3222244854293e-19
-5.4310561283591e-19
-3.0862674044577e-19
-1.3191847893231e-19
-1.0216197584922e-20
6.3641048748995e-20
9.956929271548e-20
1.084569386464e-19
1.0051899571925e-19
8.4124256776013e-20
6.5265374316747e-20
4.761433509264e-20
3.2957718262217e-20
2.1777696119267e-20
1.3800405372847e-20
8.417150381202e-21
4.955781156333e-21
2.8235297874781e-21