/*--------------------------------*- C++ -*----------------------------------*\
  =========                 |
  \\      /  F ield         | OpenFOAM: The Open Source CFD Toolbox
   \\    /   O peration     | Website:  https://openfoam.org
    \\  /    A nd           | Version:  7
     \\/     M anipulation  |
\*---------------------------------------------------------------------------*/
FoamFile
{
    version     2.0;
    format      ascii;
    class       volScalarField;
    location    "0.8";
    object      alpha.water;
}
// * * * * * * * * * * * * * * * * * * * * * * * * * * * * * * * * * * * * * //

dimensions      [0 0 0 0 0 0 0];

internalField   nonuniform List<scalar> 
6000
(
0
0
0
0
0
0
0
0
0
0
0
0
0
0
0
0
0
0
0
0
0
0
0
0
0
0
0
0
0
0
0
0
0
0
0
0
0
0
0
0
0
0
0
0
0
0
0
0
0
0
0
0
0
0
0
0
0
0
0
0
0
0
0
0
0
0
0
0
0
0
0
0
0
0
0
0
0
0
0
0
0
0
0
0
0
0
0
0
0
0
0
0
0
0
0
0
0
0
0
0
0
0
0
0
0
0
0
0
0
0
0
0
0
0
0
0
0
0
0
0
0
0
0
0
0
0
0
0
0
0
0
0
0
0
0
0
0
0
0
0
0
0
0
0
0
0
0
0
0
0
0
0
0
0
0
0
0
0
0
0
0
0
0
0
0
0
0
0
0
0
0
0
0
0
0
0
0
0
0
0
0
0
0
0
0
0
0
0
0
0
0
0
0
0
0
0
0
0
0
0
0
0
0
0
0
0
0
0
0
0
0
0
0
0
0
0
0
0
0
0
0
0
0
0
0
0
0
0
0
0
0
0
0
0
0
0
0
0
0
0
0
0
0
0
0
0
0
0
0
0
0
0
0
0
0
0
0
0
0
0
0
0
0
0
0
0
0
0
0
0
0
0
0
0
0
0
0
0
0
0
0
0
0
0
0
0
0
0
0
0
0
0
0
0
0
0
0
0
0
0
0
0
0
0
0
0
0
0
0
0
0
0
0
0
0
0
0
1.1326040521533e-46
6.4431333180126e-46
2.8095955879582e-45
1.0998572922988e-44
3.3924999421887e-44
2.7768358088471e-43
1.235686673171e-42
5.1939237987571e-42
2.4994843216012e-41
2.7615474070312e-40
1.4362244885637e-39
2.9794622308347e-39
3.1302022878111e-39
2.7785062969416e-39
2.281279027809e-39
1.3159913316123e-39
3.9778199145465e-40
5.5030548546751e-41
6.2320540191441e-42
4.3169781293963e-43
7.2756682587762e-44
2.1368089035861e-44
2.7359697210307e-45
6.8761196178183e-46
1.0081769303226e-46
1.8903857096235e-47
3.490246150042e-48
1.4077468965474e-48
1.6935700261495e-49
5.1135119216033e-50
5.1562395505318e-51
1.9201654994035e-51
3.903572432323e-52
3.6506807671018e-53
8.8068201753835e-54
1.2414692980373e-54
3.7741930368823e-55
4.6526389724506e-56
8.407209622847e-57
2.75589202419e-57
3.2286916123618e-58
9.8802563782993e-59
1.1915911652044e-59
2.1456192810499e-60
6.9997882483758e-61
8.2412321089907e-62
2.4041442652381e-62
3.0163853160144e-63
5.4544885118227e-64
1.7758466345124e-64
2.0947237548978e-65
6.0918580284357e-66
7.6638032871047e-67
1.3780111799411e-67
5.6360397744387e-68
5.5587722385083e-69
1.5651673564776e-69
1.9775244795876e-70
3.5825422070658e-71
1.0850683204077e-71
1.373021550943e-72
1.6237932321191e-73
4.5054652782776e-74
8.7459886684417e-75
1.631743544322e-75
6.6178587934462e-76
1.6313248291767e-76
3.4651913860651e-77
5.7172115253306e-78
5.3816765561422e-79
9.3017924057439e-80
3.7307206788756e-80
7.9328957628158e-81
7.4981002972822e-82
1.4304774815332e-82
5.3727975151198e-83
1.3095867458288e-83
2.7636289699793e-84
5.2668631975189e-85
4.4045671433182e-86
1.6147656918911e-86
3.5036370643717e-87
1.3344488488986e-87
0
0
0
0
0
0
0
0
0
1.7529698654642e-32
-3.6222716315307e-69
3.421138828918e-50
7.4346719198933e-33
-1.9017892196202e-49
1.710569414459e-50
4.2764235361475e-51
0
4.4010580579653e-35
7.173222431581e-46
2.1750399266523e-45
8.583265089155e-45
2.810008609178e-44
2.7256991867185e-37
1.3705189198497e-42
4.061517067311e-42
1.9402067734687e-41
1.8279735634014e-40
4.2374934651616e-40
5.9959878418059e-40
8.4164939641936e-40
5.1311682977938e-39
6.6550625722986e-40
5.9190049205548e-40
6.5373545350599e-40
8.382732712223e-41
1.9325493378367e-40
2.5938483586119e-42
4.8871392795314e-43
2.0100640826622e-43
1.8239486715479e-44
3.53497223308e-45
6.7903028273896e-46
1.2898104265538e-46
2.4484986233855e-47
2.8628933842835e-47
4.1584046404309e-48
4.4980619728932e-48
3.6222826442628e-50
9.8855504059706e-49
1.2137515786347e-49
2.6868322637057e-52
1.5340007757197e-50
9.6321743087777e-54
3.1649197453175e-51
4.0330347067055e-55
6.6714862526365e-56
3.4641014381754e-53
2.4710066574331e-57
2.744670304969e-54
9.0913070336189e-59
5.4691361525647e-59
4.482184944374e-56
6.3228024327379e-61
3.9493775599217e-57
2.3162574616764e-62
4.3546147014645e-63
6.2885318819732e-59
1.6103715398989e-64
5.0653044385118e-60
5.8956527274906e-66
1.1072043402017e-66
2.3147153366168e-61
1.519936701627e-65
1.3127431033759e-62
1.523981419967e-69
2.8649871099574e-70
5.2606613052242e-64
3.4222646719194e-68
1.9328641067873e-72
1.1316546053568e-69
6.9813686133133e-74
1.1120662231318e-68
8.9345436250521e-68
1.1026293601706e-68
1.3165026549613e-69
3.7250036073007e-69
2.3569122893345e-73
7.4744535508684e-79
3.4585314870149e-72
1.857910436691e-72
5.5893855780043e-81
2.0107929424584e-74
1.2827295593413e-73
1.2209663764516e-74
1.3787539674415e-75
3.9388290512956e-75
2.4743298161174e-79
4.0536525315599e-76
1.4391135446077e-77
2.2628669349922e-77
0
0
0
0
0
0
0
4.0979868960645e-19
1.3583801321976e-17
2.076971205271e-16
1.8511072160448e-15
1.0601131653283e-14
5.2449837332791e-14
4.1040329810563e-13
3.5905705892906e-12
1.7606208991292e-11
4.7361539991955e-11
8.3190915711552e-11
1.4612367613867e-10
2.5810617781974e-10
3.7479035716836e-10
3.9785696308327e-10
3.7700296877685e-10
3.1306898122824e-10
2.0253563200159e-10
8.7844931691565e-11
2.2921706780673e-11
4.0827681287979e-12
8.3968261230421e-13
2.6019225984319e-13
9.8587742464273e-14
3.8102525233219e-14
1.4133170764375e-14
5.0281519562601e-15
1.7473856684861e-15
6.0050985198621e-16
2.0250242581635e-16
6.5390196756807e-17
1.9725457825994e-17
5.5150923559002e-18
1.4517203441917e-18
3.7021362628759e-19
9.3517051232432e-20
2.3551270501628e-20
5.893835686157e-21
1.4599732853634e-21
3.5766669720028e-22
8.6761865206341e-23
2.0871073104758e-23
4.9837006058486e-24
1.1819339241439e-24
2.7851542904242e-25
6.5237123300974e-26
1.5194963017199e-26
3.5206173577052e-27
8.1168944346391e-28
1.862668591863e-28
4.2556594232695e-29
9.6824398628659e-30
2.1942283519318e-30
4.9538467003672e-31
1.1144095205619e-31
2.4983901471351e-32
5.5828395492456e-33
1.2436290559583e-33
2.7620046755152e-34
6.1165828020105e-35
1.3508082617429e-35
2.9752620205789e-36
6.5365217262984e-37
1.432513798528e-37
3.1319852836891e-38
6.8319603230354e-39
1.4869951295951e-39
3.2295670587953e-40
6.9997064258545e-41
1.5140655951293e-41
3.2686317116092e-42
7.0431902392122e-43
1.5148840142186e-43
3.2525133156379e-44
6.971249119827e-45
1.4916776345639e-45
3.1866346226066e-46
6.7967551712891e-47
1.4474425553697e-47
3.0778602043206e-48
6.5352321712769e-49
1.3856506633182e-49
2.9338806823969e-50
6.2035720588277e-51
1.3099841529037e-51
2.7626676908271e-52
5.8189257235404e-53
1.2241071609342e-53
2.5721359632828e-54
5.3945258672604e-55
1.1411687077064e-55
2.1283180793199e-56
7.9499899625884e-57
0
0
0
0
0
0
3.8221414388905e-19
1.7858459979113e-17
3.8471056196505e-16
5.2112532072552e-15
4.8134665893452e-14
2.9720231171385e-13
1.1765133106181e-12
3.9196948678763e-12
1.7714069049021e-11
1.6533109115923e-10
1.3398487098628e-09
4.0389527133431e-09
7.3403448815708e-09
1.2192306081759e-08
1.7072528379198e-08
1.799074343899e-08
1.7043126240792e-08
1.4108742457477e-08
8.9505947442822e-09
3.5908300943107e-09
6.9575901928415e-10
5.2321429963901e-11
6.7137761575879e-12
3.5929786029806e-12
1.967923371734e-12
8.9026706433239e-13
3.634842636536e-13
1.4263544217402e-13
5.4614084860604e-14
2.0509609274737e-14
7.5394751491953e-15
2.6735459172663e-15
8.922279575242e-16
2.7434822902062e-16
7.7566459027029e-17
2.0609993269995e-17
5.3146880627628e-18
1.3595442998878e-18
3.4666513633773e-19
8.7751774882863e-20
2.1969405433839e-20
5.4373131043049e-21
1.3321301252638e-21
3.2355251886454e-22
7.7981657140694e-23
1.8661186870272e-23
4.4358876189166e-24
1.0478586751506e-24
2.4608388167268e-25
5.7475493784403e-26
1.3355014746291e-26
3.0881340480495e-27
7.1081046906607e-28
1.6290065389083e-28
3.7179155135961e-29
8.4522462836305e-30
1.9143520509409e-30
4.3203930132274e-31
9.7172989253162e-32
2.1784757807955e-32
4.8686014099598e-33
1.0848141733993e-33
2.4102258641305e-34
5.3402260193284e-35
1.1800657678681e-35
2.6009969249592e-36
5.7187397590622e-37
1.2543685808403e-37
2.7450461847246e-38
5.9938674124073e-39
1.3059576687045e-39
2.8395228908895e-40
6.1614680957572e-41
1.3343580762653e-41
2.8842664540796e-42
6.2229651995898e-43
1.3402363663113e-43
2.881438767652e-44
6.1844671012949e-45
1.3251957400383e-45
2.8350564578306e-46
6.0557168823734e-47
1.2915434873831e-47
2.7504821806881e-48
5.8489913991546e-49
1.2420550189368e-49
2.6339232886947e-50
5.5780462434872e-51
1.179749625688e-51
2.4920779013109e-52
5.2541048149362e-53
1.1168687839338e-53
2.1000686572564e-54
7.8266867473902e-55
0
0
0
0
0
1.6275975925422e-19
1.0690385389955e-17
2.8411350478625e-16
4.4901017971125e-15
4.9675402784586e-14
4.1963482719862e-13
2.7512052260433e-12
1.2860819390279e-11
3.5637041212217e-11
7.624643433456e-11
3.0363944652821e-10
3.2882673595399e-09
5.7043765722016e-08
2.3504732137888e-07
3.8292541109756e-07
4.6048769178421e-07
4.6005344748491e-07
4.3114605856902e-07
3.5543284963033e-07
2.2477642532095e-07
9.1241964081715e-08
1.7803346720678e-08
1.07035227318e-09
5.1368227952282e-11
1.1680565278852e-11
8.3144871801083e-12
6.1425333074786e-12
3.3779476587051e-12
1.561304700907e-12
6.7709994386381e-13
2.849489375823e-13
1.173662719091e-13
4.6892663176052e-14
1.7698151980085e-14
6.1164735754734e-15
1.9034310437535e-15
5.3928390932715e-16
1.4401972453618e-16
3.758561942793e-17
9.7594075977723e-18
2.522993706705e-18
6.462074668374e-19
1.6352465168007e-19
4.089414040403e-20
1.0121770899962e-20
2.4829043078082e-21
6.0416640614329e-22
1.45916275751e-22
3.4995727628699e-23
8.3385396402466e-24
1.9747578358037e-24
4.650005847654e-25
1.0890754953691e-25
2.5378218051592e-26
5.8855095211931e-27
1.3587423294151e-27
3.1233524655322e-28
7.1503624710993e-29
1.6305838268477e-29
3.704626348078e-30
8.3869522718895e-31
1.8922973237129e-31
4.2556138572035e-32
9.5407074368907e-33
2.1325462751584e-33
4.7529838063965e-34
1.0564074159233e-34
2.3417369192913e-35
5.1775935966126e-36
1.1419318592812e-36
2.5125326953882e-37
5.5154049315195e-38
1.2080089875769e-38
2.6401048244806e-39
5.7578446324458e-40
1.2531829628113e-40
2.722145799456e-41
5.9016835900012e-42
1.2771213177938e-42
2.7586905863681e-43
5.948538598575e-44
1.2804861207077e-44
2.7517988233706e-45
5.9041140147358e-46
1.2647574697699e-46
2.7051519925423e-47
5.7772970919571e-48
1.2320330519413e-48
2.6236150963082e-49
5.5791916452205e-50
1.1848713985359e-50
2.5113906018864e-51
5.3649350377862e-52
1.0168268005194e-52
3.7838042464822e-53
0
0
0
0
0
2.8273713786295e-18
1.2390547714227e-16
2.5507988046031e-15
3.3005311414754e-14
3.0349122303266e-13
2.1544272143596e-12
1.2630715313078e-11
6.1402576651883e-11
2.1548917157044e-10
4.1851909340897e-10
8.7275402179499e-10
5.9106281890644e-09
7.7776284585866e-08
1.3289636460664e-06
8.6366264427728e-06
9.9425491589971e-06
9.3402030537466e-06
8.3034806975425e-06
6.7320049099602e-06
4.3099777980766e-06
1.8533913445407e-06
4.0795576736652e-07
3.0303820596057e-08
1.2108758468384e-09
2.0109624447817e-10
5.2465404274111e-11
1.3999158185041e-11
1.0145671064597e-11
7.579736462541e-12
4.2620598657285e-12
2.1054763708994e-12
9.9883688500543e-13
4.5806099426161e-13
1.9873663742536e-13
7.9039436686137e-14
2.8053770480091e-14
8.8294464631396e-15
2.5195985897909e-15
6.7949105191099e-16
1.7959413252335e-16
4.7244162537713e-17
1.2359052085889e-17
3.199630640876e-18
8.1790850979926e-19
2.0655482697842e-19
5.1613238110238e-20
1.2777876744158e-20
3.1369640470181e-21
7.6415343873336e-22
1.847983855479e-22
4.4388688749691e-23
1.0594875550191e-23
2.5138652910291e-24
5.9315131451858e-25
1.3922123910579e-25
3.2515319487231e-26
7.5583639749828e-27
1.7491602173214e-27
4.0307826258007e-28
9.2511423837439e-29
2.1150899609566e-29
4.8179793877709e-30
1.0936371291999e-30
2.4741065768062e-31
5.579054018563e-32
1.2541683570206e-32
2.81097285382e-33
6.2822047816589e-34
1.4001294393867e-34
3.1122049777817e-35
6.9000588873269e-36
1.5260204129575e-36
3.3668751574162e-37
7.4111737895319e-38
1.6276935567693e-38
3.5670943612796e-39
7.8008499122689e-40
1.7024807609352e-40
3.70818762597e-41
8.0613048167647e-42
1.7491897054831e-42
3.7886027636184e-43
8.1913115720562e-44
1.7679935957052e-44
3.8096101936568e-45
8.1954327295557e-46
1.760243782987e-46
3.774858237891e-47
8.0829907095713e-48
1.728230469594e-48
3.6899880792253e-49
7.8626396764276e-50
1.6879900021353e-50
3.224032741162e-51
1.1985840573119e-51
0
0
0
0
3.0994750048926e-33
2.2569403552798e-17
8.3245106022596e-16
1.4853068105646e-14
1.689804360222e-13
1.3677111522063e-12
8.4012696055199e-12
4.1834680183022e-11
1.8247277384888e-10
7.2057955531249e-10
2.2753486298011e-09
5.4813910104879e-09
1.7959440424776e-08
1.2337674492402e-07
1.4477099266453e-06
1.6824081281447e-05
0.00013728067563777
0.00015716845869315
0.00014019900751741
0.00011152172676885
7.4647815849613e-05
3.5068727283073e-05
9.1475748620857e-06
9.0430063234307e-07
3.3596254070186e-08
3.7943498008073e-09
9.4487588078812e-10
1.8978703177457e-10
4.4980548635733e-11
1.6395117490407e-11
1.1961862453237e-11
8.6334717933112e-12
5.0843264530964e-12
2.7406579877639e-12
1.3950647116355e-12
6.5385532811234e-13
2.731861799087e-13
9.9409768045847e-14
3.1533739945121e-14
9.0129023086759e-15
2.4425431722605e-15
6.52316644269e-16
1.7372604850995e-16
4.5954591110717e-17
1.2010121876087e-17
3.0966732002063e-18
7.8864768141025e-19
1.9871444767383e-19
4.9598470896613e-20
1.2273068946739e-20
3.0126856544196e-21
7.3402206130174e-22
1.7759809847394e-22
4.2691327540699e-23
1.0199770484688e-23
2.4229764626769e-24
5.72478257561e-25
1.3457034091977e-25
3.1480249878431e-26
7.3304922743004e-27
1.6995460299348e-27
3.9239930540448e-28
9.0240735289953e-29
2.067442183101e-29
4.7194572352319e-30
1.0736065482921e-30
2.4341903829025e-31
5.5014597887434e-32
1.2395649642867e-32
2.7847043481922e-33
6.2381341559711e-34
1.3936080429757e-34
3.1051226962054e-35
6.9009444622845e-36
1.5299145664268e-36
3.3836847468669e-37
7.4663778907117e-38
1.6438377074196e-38
3.6113262275717e-39
7.9170196250085e-40
1.7320919205069e-40
3.7819872082215e-41
8.2420178337727e-42
1.7928119867016e-42
3.8926549467517e-43
8.4370047839741e-44
1.825501654221e-44
3.9431850475004e-45
8.5035777493927e-46
1.8308962807188e-46
3.9359456846974e-47
8.4487716454061e-48
1.8098182627767e-48
3.904742264523e-49
7.51441894922e-50
2.7921797596478e-50
0
0
0
0
-9.8137870876239e-47
1.1052735767077e-16
3.7406659124814e-15
6.1323560258834e-14
6.4048411667941e-13
4.738911382173e-12
2.6346319706907e-11
1.1759999332202e-10
4.8393792232604e-10
2.1902903625456e-09
1.0004656350446e-08
3.7081680009398e-08
1.1453116909604e-07
4.0725876256813e-07
2.3057340966885e-06
2.0791935701272e-05
0.00017946319770913
0.0013570190921635
0.0020041494927813
0.0017180013820655
0.0012208683796695
0.00066718849613583
0.00020755035161479
2.5392138250185e-05
8.811702848167e-07
7.8353039289945e-08
2.0077605157295e-08
3.8073425980858e-09
7.3584289729359e-10
1.5318035904326e-10
3.8841660358057e-11
1.8865114546859e-11
1.4701720432636e-11
1.0747999600681e-11
6.6555767124454e-12
3.7126646153683e-12
1.85295113137e-12
7.9668684813977e-13
2.8905747435157e-13
9.0174466548103e-14
2.5581796352073e-14
6.9962312284418e-15
1.8985630035201e-15
5.1247098192933e-16
1.3684814101528e-16
3.6040993704587e-17
9.3629582082986e-18
2.40288659883e-18
6.1009049870517e-19
1.5341410704541e-19
3.823749294185e-20
9.4525120817033e-21
2.3189318056211e-21
5.6485450660252e-22
1.366768032388e-22
3.2865697934368e-23
7.85673966647e-24
1.8678375308084e-24
4.417384602026e-25
1.0395395003501e-25
2.4348730432758e-26
5.6776926730248e-27
1.3183181659599e-27
3.0486440652053e-28
7.0227987259798e-29
1.6117728463473e-29
3.6860011409913e-30
8.4009485769156e-31
1.9084526438304e-31
4.321850785749e-32
9.7576465451668e-33
2.1966241105497e-33
4.9311390835478e-34
1.1039830655158e-34
2.4651399145692e-35
5.4906381054162e-36
1.2199503053266e-36
2.704167517812e-37
5.98038912111e-38
1.3196546769615e-38
2.9057298425762e-39
6.3847202367737e-40
1.400059563251e-40
3.0640383910673e-41
6.6928150747981e-42
1.4591944649484e-42
3.1756235783429e-43
6.8988574453128e-44
1.4961582789147e-44
3.2392858680294e-45
7.0017949161569e-46
1.5111026522365e-46
3.2542572073939e-47
7.0564752786865e-48
1.3681474372699e-48
5.0829839028366e-49
0
0
0
0
0
3.9139847288531e-16
1.2561389418742e-14
1.9246595899896e-13
1.8711745716891e-12
1.2936673378286e-11
6.7617456990543e-11
2.9196478407016e-10
1.324075465546e-09
7.4734785067917e-09
4.2654747412851e-08
1.93837940506e-07
6.9958519194661e-07
2.3254114345068e-06
8.7010204183588e-06
4.4026692815196e-05
0.00028813041566083
0.0021263013345967
0.011466388214232
0.026494967625646
0.024258048956122
0.014896819560932
0.0051695696062968
0.00053776726912973
1.6558389745816e-05
1.7615172617869e-06
4.3569237883034e-07
8.2248840356717e-08
1.5528011233013e-08
2.9487791052512e-09
5.7422312144712e-10
1.254663244616e-10
3.4842943301607e-11
2.5056398538002e-11
2.1304070351536e-11
1.5591465630794e-11
9.3475232292663e-12
4.6668249332376e-12
1.9365306660599e-12
6.7585444664652e-13
2.0772964467567e-13
5.9510651072932e-14
1.6576661685733e-14
4.5673748496599e-15
1.2457870982589e-15
3.353232430903e-16
8.8958276938808e-17
2.3279283571306e-17
6.0182171377597e-18
1.5390861485901e-18
3.8975631664302e-19
9.7813677203027e-20
2.4342838105171e-20
6.0112460684928e-21
1.4736990081099e-21
3.5884645386812e-22
8.6825416026634e-23
2.0882739930217e-23
4.9943448251706e-24
1.1881033902102e-24
2.8121391143744e-25
6.624267269463e-26
1.5533155331784e-26
3.6265726937994e-27
8.4320795260785e-28
1.9527866781901e-28
4.5053761124257e-29
1.0356964845882e-29
2.3725941764614e-30
5.4170635074193e-31
1.2328493114532e-31
2.7971400208923e-32
6.3274081550952e-33
1.4272210731638e-33
3.2103620172578e-34
7.2020350207793e-35
1.6115126171764e-35
3.5968814791912e-36
8.008795293566e-37
1.7790567439716e-37
3.9429852858191e-38
8.7197272687677e-39
1.924204463634e-39
4.2373752771717e-40
9.3124850450968e-41
2.0425917207262e-41
4.4716533149577e-42
9.7711905957121e-43
2.1312818443673e-43
4.6405423190098e-44
1.0086704812544e-44
2.1888652524676e-45
4.7395555791701e-46
1.032994596793e-46
2.0178772054734e-47
7.4983030001006e-48
0
0
0
0
0
9.976984059886e-16
3.1296122721566e-14
4.6795968714782e-13
4.3894501145614e-12
2.8701968405976e-11
1.4337318734739e-10
6.6708172769444e-10
3.7540156780853e-09
2.440001322324e-08
1.5629211450441e-07
8.6419552465929e-07
3.6666152098527e-06
1.289132707253e-05
4.5143468505613e-05
0.00018035410250701
0.00086005205846715
0.0048243299647882
0.028317390904587
0.14807185433863
0.39093978484861
0.34460258718088
0.1262118387362
0.013853148779217
0.00035874412925787
4.4730950334929e-05
9.9112667403575e-06
1.8662271716898e-06
3.5118111798577e-07
6.6119111461646e-08
1.2474559803087e-08
2.379082769209e-09
4.6942620805536e-10
1.1042141153095e-10
4.5263474350983e-11
4.2206140188413e-11
3.4932870622037e-11
2.0463154306683e-11
9.6393373055112e-12
3.8412403166919e-12
1.31374253821e-12
4.0330914699807e-13
1.1690828056894e-13
3.3064985024755e-14
9.2252076773196e-15
2.5392791801048e-15
6.8856011153542e-16
1.8395333868472e-16
4.8478585130653e-17
1.2621421633068e-17
3.2502786659134e-18
8.2871739875456e-19
2.0936667071178e-19
5.2446756609412e-20
1.3034687174607e-20
3.2157732954016e-21
7.87915306524e-22
1.9180831864867e-22
4.6410350914152e-23
1.1165326212769e-23
2.6716086807492e-24
6.3597891226069e-25
1.5065860791207e-25
3.5524672996835e-26
8.3396218819903e-27
1.9495330483084e-27
4.539040438755e-28
1.0527422047575e-28
2.432621561304e-29
5.6012738472466e-30
1.2853448207896e-30
2.9398826745634e-31
6.7030300032582e-32
1.523677951703e-32
3.4533698737904e-33
7.8048612766557e-34
1.7591432966971e-34
3.9544911963675e-35
8.8668763797891e-36
1.9832462053794e-36
4.4252926858038e-37
9.8514124381046e-38
2.188145989949e-38
4.8495792141122e-39
1.0725291261785e-39
2.3671044603389e-40
5.2137939036985e-41
1.1461516787021e-41
2.5148075789333e-42
5.5076150693883e-43
1.2040322948867e-43
2.6276361334596e-44
5.721572945569e-45
1.2536350184979e-45
2.4675589064378e-46
9.1740040979492e-47
0
0
0
0
0
1.540183867194e-15
4.8514747931568e-14
7.1135350672002e-13
6.4932251163466e-12
4.1943678444567e-11
2.2230826543828e-10
1.2620058506514e-09
8.9728617492855e-09
6.6273556380648e-08
4.5464512876609e-07
2.8501507817708e-06
1.5518479152322e-05
6.5574398851736e-05
0.00023464001811739
0.00086756857796808
0.0036324602828874
0.017515925379187
0.10099930560875
0.51083577068363
0.89655654377461
0.90548902588763
0.78899177090216
0.33889820177363
0.039685787914568
0.0013083682934136
0.00018826629808317
4.0430653301785e-05
7.6231010426098e-06
1.4370644264459e-06
2.7093467914755e-07
5.1131773738983e-08
9.6927096791224e-09
1.8701186636842e-09
3.9668795180379e-10
1.0981844824709e-10
8.2518147962406e-11
6.3935346738223e-11
3.7614300426001e-11
1.6941369927095e-11
6.4680925249131e-12
2.1707307999098e-12
6.6753844548159e-13
1.9580546643855e-13
5.6092599230985e-14
1.5810531566004e-14
4.3865833592998e-15
1.1977764302666e-15
3.2217278861958e-16
8.5488120201091e-17
2.2410122291015e-17
5.8104265939509e-18
1.4914287893034e-18
3.7928766954399e-19
9.5632114128795e-20
2.3920484465538e-20
5.9388166719841e-21
1.4642004059149e-21
3.586384568615e-22
8.7304243005109e-23
2.1129362753347e-23
5.0856503169835e-24
1.2176991456397e-24
2.9012198110992e-25
6.8797510700985e-26
1.6240981984628e-26
3.8175780713194e-27
8.9367920614186e-28
2.0838647677808e-28
4.8408574944081e-29
1.1204845324379e-29
2.584531236611e-30
5.941657893669e-31
1.3615619670562e-31
3.1104395782671e-32
7.0844864491073e-33
1.6089483904034e-33
3.6438906026436e-34
8.2303445775667e-35
1.8541207150304e-35
4.1664014945302e-36
9.3394504507674e-37
2.0885787833098e-37
4.6599405754062e-38
1.0373827482325e-38
2.3043823935572e-39
5.1080297498334e-40
1.1299542859888e-40
2.4946005675789e-41
5.4966357193724e-42
1.2088423257619e-42
2.6537277204395e-43
5.8121737533335e-44
1.280525178289e-44
2.5402142822211e-45
9.4521965783473e-46
0
0
0
1.642136301309e-46
1.8351801794547e-33
1.5604010505018e-15
4.9400517580942e-14
7.2386005145357e-13
6.586385099092e-12
4.2132237946032e-11
2.2249900908566e-10
1.4650498250992e-09
1.2638576474613e-08
1.1109830026309e-07
9.1207552903729e-07
6.8236750182393e-06
4.4393405752482e-05
0.00024822601810064
0.0011188729604904
0.00424895303089
0.016881258320732
0.08151874658905
0.42146184700248
0.87779236396373
0.98327113707986
0.9933770879668
0.98842039370184
0.91826261311949
0.52874119777607
0.082585554591932
0.0035061569625544
0.00045597648870861
0.00010217988436702
1.9595080057625e-05
3.7537785455551e-06
7.1861679792438e-07
1.3756361359251e-07
2.6391894049625e-08
5.1251804795136e-09
1.0500795298067e-09
2.6885450087054e-10
1.5130515372526e-10
1.042823261731e-10
5.8634871364164e-11
2.5313173056099e-11
9.3302397414925e-12
3.0802572178347e-12
9.4794694251456e-13
2.8071226311913e-13
8.1260363221689e-14
2.3100641750698e-14
6.45441755239e-15
1.7740203480316e-15
4.8034621055014e-16
1.2832583576384e-16
3.3870186297971e-17
8.8417374467816e-18
2.2848991765688e-18
5.8498299136498e-19
1.4847777515863e-19
3.7383680075281e-20
9.341912655562e-21
2.3180795108495e-21
5.7140479433121e-22
1.3997433645033e-22
3.4087262297147e-23
8.2548934207903e-24
1.98852455203e-24
4.7661154064391e-25
1.1368860447505e-25
2.6995074533816e-26
6.3819944453239e-27
1.5025022037966e-27
3.5231994248552e-28
8.2298901654828e-29
1.9153671804995e-29
4.4419468897574e-30
1.0266352354302e-30
2.3650210394877e-31
5.4310167696879e-32
1.2433769162774e-32
2.838215908017e-33
6.4602887371139e-34
1.4664350644432e-34
3.3198351249858e-35
7.4963406357572e-36
1.6884791674727e-36
3.7939223694624e-37
8.5046930130692e-38
1.9021113452752e-38
4.2447150706974e-39
9.4519926100612e-40
2.1003230797724e-40
4.657590854036e-41
1.0307931248958e-41
2.2769548213193e-42
5.0176759638138e-43
1.1119288857376e-43
2.2236585145658e-44
8.2846130006844e-45
0
0
0
2.838087403012e-45
6.3390408297987e-33
1.3867178017717e-15
4.4475653468712e-14
6.5821527698754e-13
6.013902174936e-12
3.829526173632e-11
2.0290179921013e-10
1.3502636827189e-09
1.2055147579991e-08
1.1087947684855e-07
9.9218776997731e-07
8.6749338858813e-06
7.3699321423438e-05
0.0005856159158223
0.0036376716630244
0.018121614596636
0.083906523127866
0.40136428961329
0.85242316285793
0.97745057045446
0.99360483873547
0.99646987813732
0.99700992523526
0.9961807781179
0.95020992365964
0.58918710722353
0.097313806337987
0.0052316396263985
0.00078856602000898
0.00017263500155303
3.3895525120129e-05
6.6450044902167e-06
1.3011209974903e-06
2.5461644597026e-07
4.9902309278365e-08
9.867735671739e-09
2.0377347988684e-09
5.1221604334291e-10
2.5048132776587e-10
1.5425925052369e-10
7.9703346979969e-11
3.2455928147515e-11
1.1517242522044e-11
3.7429020677127e-12
1.1530647130833e-12
3.441611245228e-13
1.0045778045567e-13
2.8760956557033e-14
8.0880795387209e-15
2.2376146686218e-15
6.1000850806738e-16
1.6411048978087e-16
4.3623439565818e-17
1.1469144433091e-17
2.9850292904057e-18
7.6966497156616e-19
1.9673390710406e-19
4.9881127065347e-20
1.2551615511639e-20
3.1359709799882e-21
7.7827960022448e-22
1.9193534786736e-22
4.7052119204104e-23
1.1469492177912e-23
2.7808281351243e-24
6.7078439449502e-25
1.6101834602196e-25
3.8472290239114e-26
9.151460442481e-27
2.1676311785696e-27
5.1134036584672e-28
1.2015346326998e-28
2.8127496839046e-29
6.5608055704501e-30
1.5250121825614e-30
3.5329272073178e-31
8.1581778378982e-32
1.878008689504e-32
4.3101664762488e-33
9.8633857080243e-34
2.250788332752e-34
5.1222281293464e-35
1.1626144902022e-35
2.632086451903e-36
5.9440913431612e-37
1.3391319817976e-37
3.0098443108069e-38
6.7495709313178e-39
1.5102442786148e-39
3.3719674267644e-40
7.5129197908795e-41
1.6705589316871e-41
3.7054950306284e-42
8.2625156311626e-43
1.6663571168669e-43
6.2190805282306e-44
0
0
0
3.9743365970365e-45
4.623657439154e-45
9.1304083675024e-16
3.0312318675934e-14
4.6404629923476e-13
4.3487336699593e-12
2.7996009303994e-11
1.4601296469369e-10
9.3655517270312e-10
8.6756526902583e-09
8.6381198149036e-08
8.3800634366114e-07
7.8005435823326e-06
7.1255997354849e-05
0.00061643711094466
0.0056110960961375
0.05201696269789
0.35208363180981
0.84314888266226
0.97871529022708
0.99332678184375
0.99659528937465
0.99717336157642
0.99732014331601
0.99732285339035
0.99626599234446
0.94810303227119
0.53489841989407
0.079076140687711
0.0048283276511109
0.00081666980726806
0.00018472668641039
3.7687820438275e-05
7.7025462881749e-06
1.5754555757246e-06
3.2254114667799e-07
6.5813663053148e-08
1.3472492088064e-08
2.9138725889692e-09
7.6489274605946e-10
3.59270366964e-10
1.9758531985245e-10
9.1485723908292e-11
3.4862385070152e-11
1.1963907015097e-11
3.8507230292873e-12
1.1906897075763e-12
3.5808165004247e-13
1.0529912562134e-13
3.0358412825274e-14
8.5980724040022e-15
2.3964293247374e-15
6.5835135229231e-16
1.7851206982136e-16
4.7828790442115e-17
1.2674914745371e-17
3.3250585049495e-18
8.6411417297382e-19
2.2260851575442e-19
5.6880150433941e-20
1.4422836767588e-20
3.6308761176221e-21
9.0786888399745e-22
2.2555319234069e-22
5.5697716311422e-23
1.3674890293925e-23
3.3391234464623e-24
8.1110543624875e-25
1.960484791392e-25
4.716155508764e-26
1.1293829825094e-26
2.6928145273276e-27
6.3938366499056e-28
1.512095105681e-28
3.5622712994165e-29
8.3612018743177e-30
1.9555271126322e-30
4.5579375434287e-31
1.0588512990375e-31
2.4519595501817e-32
5.6604402366252e-33
1.3028366889689e-33
2.9900229136748e-34
6.8429523941346e-35
1.5618331766761e-35
3.5553605720035e-36
8.0728063804496e-37
1.8284776071706e-37
4.1315193788914e-38
9.3135308141587e-39
2.0947462561756e-39
4.7009636152482e-40
1.0527375332313e-40
2.351505168042e-41
5.2784394428598e-42
1.0740054997841e-42
4.0177938788047e-43
0
0
0
7.9560518693616e-45
8.1455305597463e-45
3.0348300612486e-16
1.104864869223e-14
1.8510855380557e-13
1.8601210389944e-12
1.2585775880126e-11
6.4898431733535e-11
3.63143887199e-10
3.413540219021e-09
3.9500422223859e-08
4.4279324902721e-07
4.7229713479286e-06
4.8137901359315e-05
0.00047727413616643
0.0048011822633777
0.054154396587585
0.49265685315884
0.93658303283223
0.99255014057946
0.99648303683782
0.99723736368242
0.99737837199504
0.99733135692932
0.99735335503304
0.99733112059806
0.99081849391502
0.88229111360453
0.31886320225787
0.025334229849545
0.0021770253355187
0.00047132999879881
0.00010187017467809
2.1188950852768e-05
4.3996770910183e-06
9.1302488563466e-07
1.8956214005219e-07
3.9667896820143e-08
8.6107390048607e-09
2.1516226444386e-09
7.7698301322399e-10
4.1011358498393e-10
2.0425243881382e-10
8.3667517747167e-11
3.0423643119012e-11
1.0302054718809e-11
3.3226441013964e-12
1.035165123042e-12
3.1400481875733e-13
9.3141249558506e-14
2.7089299496687e-14
7.7411117761174e-15
2.177324361411e-15
6.0368656255288e-16
1.652053698517e-16
4.4671916341698e-17
1.1946776629943e-17
3.1624822854539e-18
8.2923784100711e-19
2.1551642130828e-19
5.5549251655331e-20
1.4206702441293e-20
3.606817703449e-21
9.0939078330398e-22
2.2779042328893e-22
5.6705819100341e-23
1.4033405711699e-23
3.4535573742806e-24
8.4538269170425e-25
2.0588713986439e-25
4.989907493788e-26
1.2037444527703e-26
2.8909419742389e-27
6.9133205713105e-28
1.6464555362749e-28
3.9056947903972e-29
9.2298840879614e-30
2.1732242841312e-30
5.0989446238315e-31
1.1922772212169e-31
2.7787284417165e-32
6.4555724377758e-33
1.495162807876e-33
3.4526309569689e-34
7.949877284865e-35
1.8253991749536e-35
4.1800269263013e-36
9.5468250442704e-37
2.17485687081e-37
4.9422628972389e-38
1.1204040184259e-38
2.5339910925784e-39
5.7181775434261e-40
1.286939647985e-40
2.909660396829e-41
5.9756092463598e-42
2.242430365859e-42
0
0
0
6.9679943407014e-44
5.2649164037379e-44
2.0217820803385e-17
9.7652712219923e-16
2.1211558924827e-14
2.5845924821544e-13
1.995312546094e-12
1.0268592433279e-11
4.5443979538917e-11
3.4475088928872e-10
5.094742886169e-09
8.0411550895113e-08
1.1883964083415e-06
1.5654637103248e-05
0.00019506947183287
0.0022318553240892
0.030041393645204
0.35677613161219
0.88800024539815
0.9915205663711
0.99673174776286
0.99733997982821
0.99733135692932
0.99735221147419
0.99734811662113
0.99720654343221
0.98944300633621
0.89736223081275
0.37701078702138
0.038030640152175
0.0036630510147311