/*--------------------------------*- C++ -*----------------------------------*\
  =========                 |
  \\      /  F ield         | OpenFOAM: The Open Source CFD Toolbox
   \\    /   O peration     | Website:  https://openfoam.org
    \\  /    A nd           | Version:  7
     \\/     M anipulation  |
\*---------------------------------------------------------------------------*/
FoamFile
{
    version     2.0;
    format      ascii;
    class       surfaceScalarField;
    location    "0.8";
    object      alphaPhi0.water;
}
// * * * * * * * * * * * * * * * * * * * * * * * * * * * * * * * * * * * * * //

dimensions      [0 3 -1 0 0 0 0];

internalField   nonuniform List<scalar> 
11840
(
0
0
0
0
0
0
0
0
0
0
0
0
0
0
0
0
0
0
0
0
0
0
0
0
0
0
0
0
0
0
0
0
0
0
0
0
0
0
0
0
0
0
0
0
0
0
0
0
0
0
0
0
0
0
0
0
0
0
0
0
0
0
0
0
0
0
0
0
0
0
0
0
0
0
0
0
0
0
0
0
0
0
0
0
0
0
0
0
0
0
0
0
0
0
0
0
0
0
0
0
0
0
0
0
0
0
0
0
0
0
0
0
0
0
0
0
0
0
0
0
0
0
0
0
0
0
0
0
0
0
0
0
0
0
0
0
0
0
0
0
0
0
0
0
0
0
0
0
0
0
0
0
0
0
0
0
0
0
0
0
0
0
0
0
0
0
0
0
0
0
0
0
0
0
0
0
0
0
0
0
0
0
0
0
0
0
0
0
0
0
0
0
0
0
0
0
0
0
0
0
0
0
0
0
0
0
0
0
0
0
0
0
0
0
0
0
0
0
0
0
0
0
0
0
0
0
0
0
0
0
0
0
0
0
0
0
0
0
0
0
0
0
0
0
0
0
0
0
0
0
0
0
0
0
0
0
0
0
0
0
0
0
0
0
0
0
0
0
0
0
0
0
0
0
0
0
0
0
0
0
0
0
0
0
0
0
0
0
0
0
0
0
0
0
0
0
0
0
0
0
0
0
0
0
0
0
0
0
0
0
0
0
0
0
0
0
0
0
0
0
0
0
0
0
0
0
0
0
0
0
0
0
0
0
0
0
0
0
0
0
0
0
0
0
0
0
0
0
0
0
0
0
0
0
0
0
0
0
0
0
0
0
0
0
0
0
0
0
0
0
0
0
0
0
0
0
0
0
0
0
0
0
0
0
0
0
0
0
0
0
0
0
0
0
0
0
0
0
0
0
0
0
0
0
0
0
0
0
0
0
0
0
0
0
0
0
0
0
0
0
0
0
0
0
0
0
0
0
0
0
0
0
0
0
0
0
0
0
0
0
0
0
0
0
0
0
0
0
0
0
0
0
0
0
0
0
0
0
0
0
0
0
0
0
0
0
0
0
0
0
0
0
0
0
0
0
0
0
0
0
0
0
0
0
0
0
0
0
0
0
0
0
0
0
0
0
0
0
0
0
0
0
0
0
0
0
0
0
0
0
0
0
0
0
0
0
0
0
0
0
0
0
0
0
0
0
0
0
0
0
0
0
0
0
0
0
0
0
0
0
0
0
0
0
0
0
0
0
0
0
0
0
0
0
0
0
0
0
0
0
0
0
0
0
0
0
0
0
0
0
0
0
0
0
0
0
0
0
0
0
0
0
0
0
0
0
0
0
0
0
0
0
0
0
0
0
0
0
0
0
0
0
0
0
0
0
0
0
0
0
0
0
0
0
0
0
0
0
0
0
0
0
0
0
0
0
0
0
0
0
0
1.1035141479794e-48
6.0342671379344e-49
5.9742420138002e-48
4.1208265745522e-48
2.4971006812434e-47
1.7729374592726e-47
9.3739156969354e-47
6.8671513073339e-47
3.0308247991818e-46
2.1441765269289e-46
2.5181833917828e-45
1.487513294559e-45
1.1167597553103e-44
7.8537049507578e-45
4.7003787992263e-44
3.2923264874117e-44
2.4121507640248e-43
1.5975247071579e-43
2.5967129465864e-42
1.1273806136686e-42
1.0697379637667e-41
3.8504008541808e-42
1.4196573674832e-41
7.2941132173314e-42
1.5651047604039e-41
7.8256684619522e-42
1.3117642063401e-41
9.9048882547323e-42
9.7005320073009e-42
5.7128284176387e-42
4.1532957464847e-42
3.2354173694825e-42
8.9517983164321e-43
1.3810984986948e-42
1.3426408207257e-43
3.5830122646793e-43
2.3806418270801e-44
6.9288232036363e-44
4.9918961640213e-45
1.6580532952596e-44
7.9188074794513e-46
3.8436191268923e-45
1.8751113715217e-46
4.8484453492922e-46
2.9240719012279e-47
1.4398824778627e-46
7.0678167213551e-48
1.7780492547768e-47
1.3781389116058e-48
5.449248052636e-48
2.5522346312018e-49
1.0416427847712e-48
4.0702946223525e-50
1.9865444291408e-49
9.4544164032153e-51
2.4388750487234e-50
1.6347884447396e-51
7.9204958966849e-51
3.5952891159438e-52
9.501751813627e-52
5.9009551539524e-53
2.7402349653584e-52
1.236904713951e-53
3.65394879705e-53
2.9319457499227e-54
7.3264388558782e-54
4.2317379425776e-55
2.3070556803175e-54
1.051782227155e-55
2.5457548712136e-55
1.5587576063339e-56
8.3617216994457e-56
4.0436297072425e-57
9.5001719328869e-57
7.3385787650543e-58
3.0719123911849e-57
1.082924488085e-58
5.8264503054985e-58
2.7121992755436e-59
6.6440000889943e-59
3.980939205207e-60
2.1474157278873e-59
1.009995958236e-60
2.4400841163051e-60
1.5820416419402e-61
7.8985054191183e-61
2.7715573544035e-62
1.1935428377885e-61
6.9457920758125e-63
1.7003935784079e-62
1.0160178038659e-63
5.4983070393418e-63
2.6534587303169e-64
6.2086772620164e-64
4.8019853389786e-65
2.0145620299677e-64
7.0625653948828e-66
3.8090539729209e-65
1.7704502801662e-66
4.3315658942073e-66
2.5869584783685e-67
1.4008818944378e-66
6.7609299937712e-68
1.5805070880043e-67
1.2244596395914e-68
5.1292445101789e-68
1.8191720014619e-69
9.6938552685533e-69
3.7983702277184e-70
1.1346928223285e-69
6.6862579830756e-71
2.8327844256098e-70
1.7482705570394e-71
4.0862228884568e-71
3.1613712837622e-72
1.3262282602162e-71
4.6287251177851e-73
2.5067314993e-72
1.2119568065419e-73
2.8252408171506e-73
2.2226762614991e-74
9.1587790386948e-74
4.2396208162491e-75
1.7110435584549e-74
7.7222317091398e-76
3.2255839353647e-75
1.1449218593534e-76
6.1067689767466e-76
2.1634561026436e-77
8.4072233633525e-77
4.5855911057427e-78
1.3450746941267e-77
9.3722029104236e-79
2.7597600375726e-78
1.8685322326084e-79
5.6140050003605e-79
4.5772335491331e-80
1.09876946017e-79
8.2717665602467e-81
3.4583574829694e-80
1.223425693692e-81
6.5442745610194e-81
2.5744106085697e-82
7.625116882987e-82
6.1246176651311e-83
1.5290740551401e-82
8.7752393596745e-84
4.8395757156655e-83
1.7301104674649e-84
6.3095546957561e-84
3.6626201946166e-85
1.0753507279443e-84
7.4842395727447e-86
2.2053056755942e-85
1.5060572827696e-86
4.4821709918592e-86
3.2651554139992e-87
8.9896951810109e-87
5.2431452625905e-88
2.5037632940813e-87
1.0963256621826e-88
3.2764731833603e-88
2.5512225048551e-89
6.5261047476302e-89
1.8392249456262e-89
0
0
0
0
0
0
0
0
0
0
0
0
0
0
0
0
0
0
8.4257136010879e-35
3.0814883751072e-35
1.5389601870694e-35
6.8867534140185e-35
2.8111287331669e-36
1.2578473137527e-35
3.3040005528331e-35
0
6.0073112017477e-36
2.7032694326583e-35
1.0922386510073e-36
4.9150725507405e-36
1.9858884959401e-37
8.9364980141326e-37
3.6107063611035e-38
1.6248178598297e-37
1.9560258031775e-37
0
3.5564105519179e-38
1.6003847481269e-37
6.466201018571e-39
2.9097904547037e-38
1.1756729695575e-39
5.2905282259202e-39
2.1375890725874e-40
9.6191462867426e-40
1.2114217214995e-39
0
2.2026751822506e-40
9.9118037183823e-40
4.0076201413466e-41
1.8027819519937e-40
7.4211749921577e-42
3.3086392326824e-41
2.5707324095744e-42
8.2063488021571e-42
3.4252554322315e-42
6.939761698706e-42
4.9912385319583e-42
1.0664424090137e-41
6.5639206321e-42
1.2704799575518e-41
2.219183658399e-41
0
7.2208836222371e-42
1.924114568277e-41
3.5393200580689e-42
5.3043650758696e-42
2.8992257257585e-42
0
8.0222404264342e-43
2.0216925782203e-42
1.3671722485154e-43
0
1.4106251907496e-43
0
5.9913544216205e-45
1.3659201613459e-43
5.6290558161244e-45
0
6.2828550433296e-46
5.0568480723862e-45
2.1071620378321e-46
4.2074398776516e-46
1.1582097612802e-47
2.7318818428309e-46
1.0246217822433e-47
1.8234665689558e-48
3.053572531802e-49
1.003223814604e-47
1.5636330498831e-49
0
6.7795337391228e-50
1.0429867371604e-49
4.1361576720788e-51
0
4.2280362527477e-51
0
8.2900540308747e-52
0
1.8621062759375e-52
0
1.3589453810475e-52
5.1266179558224e-53
1.2251762876849e-53
0
1.2145598192963e-53
1.4298471417501e-55
2.1641049468316e-54
0
2.1654340740142e-54
0
2.9580291417391e-55
1.8698826359631e-54
1.7576850933953e-55
0
2.3953612758533e-56
1.5182396823481e-55
1.5062330381903e-56
0
3.6010679429832e-58
1.4702552854112e-56
3.6003030576089e-58
0
2.2339316862164e-58
0
3.1337735610097e-59
1.9205769307501e-58
1.9615305892873e-59
0
3.5665000776232e-60
1.6048887815807e-59
4.9992835842399e-61
3.0665873102736e-60
3.1249936676939e-61
0
4.2995835146408e-62
2.6950409482933e-61
2.7566085636696e-62
0
8.6076304838363e-64
2.6705343044607e-62
8.6217892077037e-64
0
1.1679205256256e-64
0
1.1674305238579e-64
0
7.2456285957552e-65
0
1.2398941136219e-65
6.0057350021584e-65
2.2543539393159e-66
1.0144588186258e-65
3.5993771231511e-67
0
3.5981281229717e-67
0
1.1902133527446e-68
3.4791068559917e-67
1.1898003547906e-68
0
4.7155211612612e-70
1.1426451670143e-68
4.3098761861698e-70
0
7.4824433561351e-71
0
2.5654391497633e-71
0
1.9679515413646e-71
0
2.577818188142e-72
0
2.5767361506547e-72
0
4.7499330148165e-74
2.5292368230215e-72
3.1296173490414e-74
0
2.2371964622986e-74
0
8.177348956685e-76
2.1554229745486e-74
7.2369120499335e-76
0
9.4024729092448e-77
0
3.0400637852158e-77
0
2.3206953395077e-77
0
2.4335646202762e-78
0
2.4322585974422e-78
0
2.0875889108759e-79
0
1.2913599797639e-79
0
0
0
0
0
0
0
0
0
0
0
0
0
0
0
0
4.285785436861e-21
2.150734869949e-21
1.3796789908686e-19
7.1022432249569e-20
2.0330203010426e-18
1.085257297416e-18
1.7256195253815e-17
9.6856674569498e-18
9.5098668144903e-17
5.5513648201675e-17
4.7931320775945e-16
2.7337719100285e-16
3.9031414961567e-15
2.0732358469798e-15
3.2949676831331e-14
1.7204723275229e-14
1.4406821590979e-13
8.9113715590337e-14
3.3627645508294e-13
2.6079436722899e-13
5.6892956646566e-13
5.8562656492584e-13
1.0156360192668e-12
1.1307294909611e-12
1.715354698664e-12
2.0342262522148e-12
2.1393181756123e-12
2.9502397052065e-12
2.1582497792458e-12
3.1549500193712e-12
1.9713630916125e-12
3.0009364314822e-12
1.4930238287063e-12
2.495601561406e-12
8.0754924994946e-13
1.6011809867439e-12
2.7354457622268e-13
6.8687543465225e-13
6.0112129749525e-14
1.7673404944634e-13
1.2367074071942e-14
3.4218539276739e-14
3.1549328640861e-15
7.5714181211701e-15
9.9884725432469e-16
2.0927712724316e-15
3.5644886296298e-16
6.8358121455631e-16
1.3040578656952e-16
2.4240829788632e-16
4.6759068686399e-17
8.7147245852181e-17
1.6381504791467e-17
3.0906752943539e-17
5.6673289150448e-18
1.0807028154052e-17
1.938665981519e-18
3.7398963369932e-18
6.4568922779981e-19
1.2719567353175e-18
2.0453206463614e-19
4.1734444731703e-19
6.0667901346413e-20
1.2958706440972e-19
1.690927498674e-20
3.7804498827908e-20
4.5148530435561e-21
1.0457318043142e-20
1.1788393948064e-21
2.7922815333939e-21
3.0431587784569e-22
7.3064706698477e-22
7.7812755182544e-23
1.8870779255105e-22
1.9679691868599e-23
4.8179923152657e-23
4.9198791021968e-24
1.215839488621e-23
1.2167399413854e-24
3.0336618183435e-24
2.9805902124564e-25
7.4913590843266e-25
7.2398574700298e-26
1.8328653139996e-25
1.7450210086942e-26
4.4469945799611e-26
4.1759414538977e-27
1.070698200821e-26
9.9266384102807e-28
2.5596236614155e-27
2.3449798225912e-28
6.0786740613794e-28
5.5073443057907e-29
1.4346930246872e-28
1.2863809099937e-29
3.3666659630717e-29
2.9892501836983e-30
7.8575460371175e-30
6.9126932193984e-31
1.8245619685181e-30
1.5912551548184e-31
4.2163864234712e-31
3.6470756931985e-32
9.6994245585078e-32
8.324496464929e-33
2.2216662843645e-32
1.8926366099444e-33
5.0679645520544e-33
4.2869982625956e-34
1.1515874797761e-33
9.6758835701718e-35
2.6070459832575e-34
2.1764467608781e-35
5.8811521814568e-35
4.8796576293501e-36
1.3222274338236e-35
1.0906209157059e-36
2.9630776131157e-36
2.430281920954e-37
6.619598499195e-37
5.3999452543878e-38
1.4744384497506e-37
1.1965203134236e-38
3.2747564242352e-38
2.6441976495842e-39
7.253312481959e-39
5.8284515544022e-40
1.6022986528379e-39
1.2815562597383e-40
3.5305483240111e-40
2.8111551034081e-41
7.7601813616782e-41
6.1521919809445e-42
1.7016478960171e-41
1.3434026710336e-42
3.7228079474229e-42
2.9271520905455e-43
8.126577783394e-43
6.3646852769257e-44
1.7701583773544e-43
1.3811135765992e-44
3.8478087988251e-44
2.9910899717726e-45
8.3471803532779e-45
6.4655078186277e-46
1.8072476143757e-45
1.3949964355959e-46
3.9054612839155e-46
3.0044424611788e-47
8.4241842016581e-47
6.4594713609935e-48
1.8138738784093e-47
1.3864151482516e-48
3.8988078323015e-48
2.9707960118386e-49
8.3660965895761e-49
6.3555726091018e-50
1.7922561029429e-49
1.3575539923564e-50
3.8333844355739e-50
2.8953267653448e-51
8.1863052058906e-51
6.1658483680468e-52
1.7455572470163e-51
1.3111697316065e-52
3.7165287198132e-52
2.7842690000207e-53
7.9015821261288e-53
5.9042458728623e-54
1.677563924347e-53
1.2503535576857e-54
3.5566999053913e-54
2.6444165166405e-55
7.530652717947e-55
5.5856129757281e-56
1.5923860112686e-55
1.1782501993744e-56
3.3629002036239e-56
2.484643433373e-57
7.0917106825408e-57
5.1683548595384e-58
1.4976804541916e-57
1.243857556557e-58
3.0429150761451e-58
9.1147710221403e-59
0
0
0
0
0
0
0
0
0
0
0
0
4.0149710302245e-21
1.9929592491796e-21
1.8387095653856e-19
9.1122361656816e-20
3.8683703638612e-18
1.9326559452995e-18
5.09301788669e-17
2.5888548585848e-17
4.5178106482821e-16
2.3802111552796e-16
2.6145381448519e-15
1.4743375128996e-15
9.7857728966772e-15
5.8530458337287e-15
3.3063307812994e-14
1.8853001890845e-14
1.6540433499153e-13
7.779173550548e-14
1.6893056542183e-12
6.3711828636997e-13
1.2136108955082e-11
5.8645166597601e-12
3.0292692587325e-11
2.511365873115e-11
5.1347341335939e-11
5.7378934440164e-11
8.0436225675497e-11
9.728889345899e-11
9.7294241012666e-11
1.3537262867637e-10
9.7361577325289e-11
1.4352996501352e-10
8.8277391799429e-11
1.3656492416853e-10
6.5901537950721e-11
1.1358327604972e-10
3.4197430763675e-11
7.2471440763362e-11
1.0154260826995e-11
3.0257221215586e-11
1.6031394662871e-12
7.0771740347135e-12
2.4348660970308e-13
1.0543885088845e-12
5.758026033553e-14
1.7644104000609e-13
1.9715828843496e-14
3.9823880668952e-14
7.8510140120911e-15
1.3300459223975e-14
3.127071768943e-15
5.143578006847e-15
1.2276801542515e-15
2.0321437672701e-15
4.7429465597938e-16
7.9728467168036e-16
1.8006841919201e-16
3.0805302360709e-16
6.7156724832194e-17
1.1704024695549e-16
2.4418086212644e-17
4.3582547927985e-17
8.4966422680435e-18
1.5712000722162e-17
2.7674654020765e-18
5.3751651649698e-18
8.3445640746754e-19
1.7152637116397e-18
2.3516490756621e-19
5.0930539612869e-19
6.3454594637358e-20
1.4276449841139e-19
1.6760486953714e-20
3.8593966832663e-20
4.3783742119014e-21
1.022437354382e-20
1.1323285004188e-21
2.672810934059e-21
2.8944834610859e-22
6.9030466918571e-22
7.3100409868368e-23
1.7611460661803e-22
1.8257014462366e-23
4.4405261390605e-23
4.5151681295933e-24
1.1076876268128e-23
1.1069106751421e-24
2.7367233229722e-24
2.6919596839958e-25
6.7030301651795e-25
6.4981806241324e-26
1.6287163724951e-25
1.5577696772067e-26
3.9283343199301e-26
3.7102709073846e-27
9.4098913728031e-27
8.783789478489e-28
2.2396248142949e-27
2.0677375659476e-28
5.2985909864262e-28
4.8416357909515e-29
1.2465242475571e-28
1.1279856444502e-29
2.9170271660682e-29
2.6154660470942e-30
6.7921888852464e-30
6.0372241344187e-31
1.57407928029e-30
1.387610169894e-31
3.6316041245696e-31
3.1763664271218e-32
8.3430275886326e-32
7.2428639950727e-33
1.908939699372e-32
1.6454467290261e-33
4.3509785071349e-33
3.7249670065095e-34
9.8806220639718e-34
8.4041206726943e-35
2.2359132409925e-34
1.8899696572468e-35
5.042715493242e-35
4.2370864021043e-36
1.1336363595888e-35
9.4707234606911e-37
2.5406193403041e-36
2.1108252430834e-37
5.6769482770216e-37
4.6916053547147e-38
1.2648799858745e-37
1.0400031100999e-38
2.8105361001132e-38
2.2994980027811e-39
6.2284222210633e-39
5.0717228680441e-40
1.376755787108e-39
1.1159344755593e-40
3.0357382874335e-40
2.4497239857787e-41
6.677850043422e-41
5.365665343811e-42
1.4655756886223e-41
1.1727053902429e-42
3.2093092366795e-42
2.5576581556621e-43
7.0125721638661e-43
5.5668835904526e-44
1.5290958939531e-43
1.2092727847974e-44
3.3274485842178e-44
2.621827121543e-45
7.2265915290975e-45
5.6738177926925e-46
1.5664847411559e-45
1.2256347808532e-46
3.3893242782342e-46
2.6429130226905e-47
7.3201003539108e-47
5.6893352167755e-48
1.5781908685821e-47
1.2226914199588e-48
3.3967316411718e-48
2.6234201964435e-49
7.2986390976944e-49
5.6199525569588e-50
1.565742516442e-49
1.202066847474e-50
3.3536262061425e-50
2.5672752061676e-51
7.1720302011232e-51
5.4749486045225e-52
1.5315080479896e-51
1.1659148279339e-52
3.2655931121509e-52
2.4794042442186e-53
6.9532167036514e-53
5.265479264656e-54
1.4784429686713e-53
1.1166623176611e-54
3.1393442663942e-54
2.3671701000627e-55
6.6559978886517e-55
4.9497627756797e-56
1.4130997649964e-55
1.1977432187502e-56
2.8864677678874e-56
8.697568767111e-57
0
0
0
0
0
0
0
0
0
0
1.7151055993405e-21
8.392940946705e-22
1.1087557244349e-19
5.3605552726392e-20
2.8839300438247e-18
1.3927596494131e-18
4.4485184186765e-17
2.1551248246509e-17
4.796684054046e-16
2.3334086008355e-16
3.9356700735243e-15
1.9321466156886e-15
2.4690797207502e-14
1.2539149565201e-14
1.0505400608648e-13
5.9126095951275e-14
2.6518263619719e-13
1.6670553178185e-13
6.2109719764133e-13
3.4551903388966e-13
3.8083868875606e-12
1.2195132104555e-12
4.7822281853814e-11
1.2823032435288e-11
6.3184172835486e-10
2.0502655118783e-10
1.7339433582184e-09
1.2900904957953e-09
2.3599488002687e-09
2.9235993943805e-09
2.5107887959542e-09
3.613721215953e-09
2.4830718388421e-09
3.6474066330384e-09
2.205874134472e-09
3.4284071669112e-09
1.6306968247304e-09
2.8262366738011e-09
8.4807442317176e-10
1.8047371326194e-09
2.5447715433257e-10
7.6430733177809e-10
3.8725191472816e-11
1.8288850764993e-10
5.4312691496366e-12
2.7171900256035e-11
9.9229636096724e-13
4.5189716005911e-12
2.1738207899844e-13
8.1898041883901e-13
6.8203450509121e-14
1.6237754683223e-13
2.8564850479807e-14
4.5261952278081e-14
1.2549718676351e-14
1.8275566909818e-14
5.447519315656e-15
7.9588620985013e-15
2.3136054273052e-15
3.4538027172689e-15
9.638869944492e-16
1.4747792396639e-15
3.9295887233263e-16
6.1811801694357e-16
1.5399585571918e-16
2.5167953903382e-16
5.6357779610088e-17
9.7304085326846e-17
1.8810732902999e-17
3.4803841239656e-17
5.7162344882567e-18
1.1359437997731e-17
1.6181702391395e-18
3.4100083527414e-18
4.4045462080374e-19
9.6471918642436e-19
1.1779326971224e-19
2.6379370561181e-19
3.1170922953911e-20
7.0785913985237e-20
8.1567094954821e-21
1.8738353043068e-20
2.1075567888158e-21
4.8965333539617e-21
5.3775762282314e-22
1.2630953401439e-21
1.3565963272203e-22
3.2187639952549e-22
3.3879612549164e-23
8.1123781263016e-23
8.3847228339666e-24
2.0244110362803e-23
2.0578938016893e-24
5.006495089012e-24
5.011892676981e-25
1.2279117899072e-24
1.2118717361648e-25
2.9885711587629e-25
2.9107015202434e-26
7.2219859278263e-26
6.9472593882507e-27
1.7336238872999e-26
1.6484385839738e-27
4.1356582708929e-27
3.8897938452748e-28
9.8082730504577e-28
9.130852815392e-29
2.3133869249964e-28
2.1328032424658e-29
5.4280899662573e-29
4.9585839472333e-30
1.2673936423967e-29
1.1477175601115e-30
2.9454626611309e-30
2.6453148064929e-31
6.815147044616e-31
6.0725570942953e-32
1.5702557697908e-31
1.3886664663429e-32
3.6035062356169e-32
3.1639569013795e-33
8.2379558181479e-33
7.1835350368833e-34
1.8764049492456e-33
1.6254919894064e-34
4.2590711914087e-34
3.6663164938422e-35
9.6349158552763e-35
8.2438320946752e-36
2.1726250695118e-35
1.8481378039878e-36
4.8840565545817e-36
4.1313717040868e-37
1.0946801699865e-36
9.2098929116911e-38
2.4465430660123e-37
2.0476617626301e-38
5.4528422477885e-38
4.5409384582991e-39
1.212104727727e-38
1.0045114249469e-39
2.6874766115038e-39
2.2167769539614e-40
5.9439408443527e-40
4.8806873244653e-41
1.3114909202745e-40
1.0721709753749e-41
2.8870277583073e-41
2.3501830874429e-42
6.3410842909463e-42
5.1407074916992e-43
1.3897393383193e-42
1.1221609202372e-43
3.0394097053932e-43
2.4446944779094e-44
6.6337420802337e-44
5.3156471081676e-45
1.4449984757693e-44
1.1536485083954e-45
3.1415244560187e-45
2.4991902236872e-46
6.8171266228785e-46
5.4044953324367e-47
1.4766332908249e-46
1.1667065458186e-47
3.1928302234443e-47
2.5144239302337e-48
6.8917800906757e-48
5.410091616091e-49
1.4851114668379e-48
1.1621924870814e-49
3.1950491410146e-49
2.4927352455607e-50
6.8628559749766e-50
5.3384541201843e-51
1.4718323038808e-50
1.1415946924411e-51
3.1517695653966e-51
2.4377145762541e-52
6.739205769652e-52
5.19772390438e-53
1.4389395777553e-52
1.1077201770153e-53
3.067488632398e-53
2.3284914026941e-54
6.5473183604088e-54
5.6656964810809e-55
1.3446017760204e-54
4.0763159665527e-55
0
0
0
0
0
0
0
0
0
0
2.9748645817344e-20
1.3771476004306e-20
1.2753902533984e-18
5.9052639510012e-19
2.5599099538306e-17
1.1909196370619e-17
3.2198757506953e-16
1.5084667743065e-16
2.8737166379601e-15
1.3537755086498e-15
1.9830711451686e-14
9.3343846591872e-15
1.1310920922978e-13
5.3134452870934e-14
5.2364810646333e-13
2.5606052954861e-13
1.6086994846683e-12
9.5045060511881e-13
3.2458374739421e-12
2.1371038232028e-12
1.0211443597799e-11
4.9164137115146e-12
8.8570149288482e-11
2.9380226807945e-11
1.2012690588605e-09
2.7902734794193e-10
1.768552903857e-08
4.2257076982324e-09
5.3779370742014e-08
3.7403597076808e-08
5.2610455107381e-08
7.3457451172553e-08
4.8344005178686e-08
7.2781633144091e-08
4.1467752368941e-08
6.5840125128334e-08
3.0422710200491e-08
5.3167955117749e-08
1.6443554139905e-08
3.4437366433966e-08
5.3631146046728e-09
1.5376570325331e-08
8.9774027980142e-10
4.0093991171205e-09
1.2245697498945e-10
6.2535820849558e-10
2.207778107302e-11
1.0123724518806e-10
4.1952762068742e-12
1.8913242879425e-11
7.9894410568087e-13
3.5549614536394e-12
1.9036645983398e-13
6.5338742061667e-13
7.0038524151344e-14
1.3913820288493e-13
3.2873286625506e-14
4.5699398988929e-14
1.5839500170856e-14
2.0740998292307e-14
7.545124909863e-15
9.9502676326821e-15
3.5204605169908e-15
4.7708627851756e-15
1.5803959023346e-15
2.2346990478958e-15
6.6313074326443e-16
9.958450119149e-16
2.5240097085188e-16
4.0976073965332e-16
8.5792480228336e-17
1.5207194499678e-16
2.630334801136e-17
5.0638701919628e-17
7.5092968134865e-18
1.539503894991e-17
2.066149441598e-18
4.4052187940583e-18
5.5917910309888e-19
1.2189614222351e-18
1.4968735295469e-19
3.3103270898462e-19
3.9591415760161e-20
8.8642698119018e-20
1.0333414630694e-20
2.3416082165849e-20
2.6623108739722e-21
6.103079616587e-21
6.7795371175315e-22
1.5707809908781e-21
1.7085918077182e-22
3.9970548654275e-22
4.2659087307857e-23
1.0067383420457e-22
1.0559583802862e-23
2.5121434558626e-23
2.5930677327016e-24
6.2150645081771e-24
6.3205250685316e-25
1.5254371767592e-24
1.5299666374795e-25
3.7164867062658e-25
3.6795524230356e-26
8.9924146102651e-26
8.7956155915505e-27
2.1618134643387e-26
2.0905079306196e-27
5.1657170594039e-27
4.9418857865749e-28
1.2273500071938e-27
1.1622962422181e-28
2.9004917366009e-28
2.7204501505868e-29
6.8197313390324e-29
6.3382750613064e-30
1.5957728978865e-29
1.4702984417568e-30
3.7169689171006e-30
3.3965180410403e-31
8.6202108993136e-31
7.8151859460937e-32
1.9908901951501e-31
1.7914240175966e-32
4.5799381529753e-32
4.0914976190796e-33
1.0496175257749e-32
9.3123045632323e-34
2.3968034450003e-33
2.1124410049866e-34
5.4541792097994e-34
4.7766348264459e-35
1.237038669182e-34
1.0767708298952e-35
2.7967343315028e-35
2.420129868173e-36
6.3035716459846e-36
5.4239473898432e-37
1.4165758026906e-36
1.2122664695583e-37
3.1743705151694e-37
2.702267656858e-38
7.0938874462016e-38
6.0082183018289e-39
1.5811077680892e-38
1.3325617275701e-39
3.5150248421046e-39
2.9484138692722e-40
7.7951078492916e-40
6.5085214207132e-41
1.7245575650807e-40
1.4335095096702e-41
3.8065213129404e-41
3.1504537733144e-42
8.3831120787566e-42
6.9092098365875e-43
1.8422074844097e-42
1.5121449991004e-43
4.0397678476654e-43
3.3028893044986e-44
8.8406828890631e-44
7.2003673138183e-45
1.9308671880888e-44
1.566746470535e-45
4.2090163542748e-45
3.402895105439e-46
9.1578547273979e-46
7.3777764037353e-47
1.9889050870139e-46
1.5967976897163e-47
4.3118415411353e-47
3.450176337501e-48
9.331689354739e-48
7.442491751598e-49
2.0161644264836e-48
1.6028726530422e-49
4.348890155325e-49
3.4466746711357e-50
9.3656003687921e-50
7.4001533691766e-51
2.0137900941634e-50
1.5863786369183e-51
4.3235118002702e-51
3.3987780977652e-52
9.2668587265836e-52
7.1820048566263e-53
1.9884934909524e-52
1.7571961087536e-53
4.1055918756035e-53
1.252269978642e-53
0
0
0
0
0
0
0
0
7.7037199607457e-36
6.940179581316e-36
2.3732498003874e-19
1.0313007783787e-19
8.5250012056245e-18
3.740071703341e-18
1.4775102779493e-16
6.5539818784676e-17
1.6275586549331e-15
7.3096991566514e-16
1.271915676985e-14
5.7828356491643e-15
7.5559625367073e-14
3.4558127717736e-14
3.6903246001459e-13
1.6705077791791e-13
1.6218859292361e-12
7.284932802627e-13
6.4620920739066e-12
3.2497616496941e-12
2.0602739319256e-11
1.3145309729041e-11
6.0517610945073e-11
3.6996810179294e-11
2.5058218290405e-10
1.1785963439501e-10
1.87648057417e-09
6.3487621826494e-10
2.2426553216603e-08
5.1189438125062e-09
2.377771077442e-07
5.9219065724132e-08
8.692922501688e-07
5.159661614344e-07
8.1927071321443e-07
1.1225385116112e-06
6.8745398196283e-07
1.082374401205e-06
5.0935430011924e-07
8.8200737424991e-07
2.9301967060626e-07
5.9339207304336e-07
1.0839478528349e-07
2.8856054023697e-07
2.0999122095607e-08
8.5156550001362e-08
2.743266158488e-09
1.4419589258775e-08
4.7977780117024e-10
2.2256096227469e-09
9.1665981266292e-11
4.1189712142156e-10
1.7299539207267e-11
7.7863273098137e-11
3.2655460591295e-12
1.4676175890169e-11
6.4497072099388e-13
2.7578218150898e-12
1.6977771753261e-13
5.2242071163751e-13
7.0608199080599e-14
1.2206060576613e-13
3.6417676884295e-14
4.6068968584119e-14
1.9413768245169e-14
2.3252858277396e-14
1.0133666539225e-14
1.2346031232122e-14
4.9820916521631e-15
6.4068714202034e-15
2.2256679715753e-15
3.1013915986151e-15
8.7790118313901e-16
1.3505748428852e-15
3.0284704787621e-16
5.1754894189109e-16
9.3203204865802e-17
1.7479433251177e-16
2.6690225159897e-17
5.3469737147998e-17
7.3971785167302e-18
1.5396920859509e-17
2.0226385821427e-18
4.2990694798029e-18
5.4716553500466e-19
1.1797500393099e-18
1.4610040206982e-19
3.1914852499589e-19
3.8462675872747e-20
8.510542073431e-20
9.9917745743078e-21
2.2378733315781e-20
2.5651303463965e-21
5.8091599828082e-21
6.5163619748746e-22
1.4905943657534e-21
1.6396328405932e-22
3.7850002270214e-22
4.0893744427557e-23
9.519771298221e-23
1.011609821851e-23
2.373374440172e-23
2.4834940815916e-24
5.8690261305448e-24
6.0538210415247e-25
1.4403705966928e-24
1.4659221920534e-25
3.5100375332707e-25
3.5276429768916e-26
8.4971929287998e-26
8.4393731786445e-27
2.0442858376623e-26
2.0078522822258e-27
4.8895478386124e-27
4.7520410409338e-28
1.1630543613812e-27
1.1191149881215e-28
2.7521091996236e-28
2.6231576506575e-29
6.480137359551e-29
6.1210969860948e-30
1.5186724090664e-29
1.4222677730804e-30
3.5432747879003e-30
3.2912862901007e-31
8.2318600003489e-31
7.5868364334725e-32
1.9047063901395e-31
1.742366192272e-32
4.3900879684526e-32
3.9872141014563e-33
1.0081056847323e-32
9.0931467456967e-34
2.3067153162277e-33
2.066960998117e-34
5.2601709787693e-34
4.6835903707591e-35
1.195590091694e-34
1.0580487875867e-35
2.7089201626545e-35
2.38320336493e-36
6.1191763540612e-36
5.3529191207994e-37
1.378227331818e-36
1.1990500509015e-37
3.0954603276119e-37
2.678807017614e-38
6.9334413048006e-38
5.9695446690928e-39
1.5489305522445e-38
1.3270055514727e-39
3.4515374557953e-39
2.9428640142567e-40
7.6723206354037e-40
6.5112737056509e-41
1.7014079487867e-40
1.4374433437332e-41
3.7643500761091e-41
3.1664580118967e-42
8.3100189387964e-42
6.9605361941357e-43
1.8305162031719e-42
1.526947271382e-43
4.023762742309e-43
3.3430504848087e-44
8.8268290271331e-44
7.3050532140316e-45
1.9324831810664e-44
1.5932660368117e-45
4.2226912262416e-45
3.4686427137061e-46
9.2097612742126e-46
7.5380345025987e-47
2.0050014680503e-46
1.6353246559896e-47
4.3572167719544e-47
3.5417373209357e-48
9.4526105053625e-48
7.6579663317087e-49
2.0472064632514e-48
1.6531601915004e-49
4.4264620023083e-49
3.5629434931429e-50
9.5556567545743e-50
7.6739079676742e-51
2.0592316129334e-50
1.630087789122e-51
4.442236499233e-51
4.0103172146337e-52
9.2208150415991e-52
2.8296759209395e-52
0
0
0
0
0
0
0
0
6.3068836253686e-36
6.3329595594488e-37
1.161965425368e-18
4.7359561778244e-19
3.8173595633187e-17
1.5811753857601e-17
6.0590688421862e-16
2.5478237892836e-16
6.1062589633827e-15
2.6087021420308e-15
4.3471742942538e-14
1.8893130954281e-14
2.3362340660383e-13
1.028033766189e-13
1.0485107513459e-12
4.5461015284529e-13
4.8072555608804e-12
1.9960845460941e-12
2.4551410064385e-11
1.0811584322868e-11
1.1126395344469e-10
5.9351464479348e-11
4.0043847885226e-10
2.4834992586856e-10
1.3611702514229e-09
7.9713464700281e-10
5.6386960607169e-09
2.6806383565275e-09
3.4575369648077e-08
1.2355406139322e-08
3.1656674732598e-07
8.775546919934e-08
2.5240512579234e-06
7.0387654990799e-07
1.0349913203734e-05
6.204465458475e-06
1.0331455438574e-05
1.3706674763646e-05
8.1301846855968e-06
1.3470704197172e-05
5.2195402881699e-06
9.9964328772441e-06
2.2700857095035e-06
5.499794982702e-06
5.0623485185718e-07
1.8466057608308e-06
6.2464506619034e-08
3.3367747226429e-07
1.0510286421228e-08
4.9269232880856e-08
2.0056429662799e-09
9.0122573339124e-09
3.7836071237425e-10
1.7030669661557e-09
7.1354023112092e-11
3.2126534723209e-10
1.3467449999766e-11
6.056723232246e-11
2.5608463368716e-12
1.1416930467235e-11
5.315698247972e-13
2.1496160050785e-12
1.6011112770312e-13
4.2674849453755e-13
7.8102131602977e-14
1.1466223878533e-13
4.5036719754608e-14
5.2010978428904e-14
2.5814684312549e-14
2.9248697300438e-14
1.3702775018685e-14
1.644226915759e-14
6.4076570747028e-15
8.4701229306974e-15
2.5541920400897e-15
3.802235646702e-15
8.6980572476016e-16
1.4597787637966e-15
2.6420907955725e-16
4.8819043998318e-16
7.5727134016315e-17
1.4868508282223e-16
2.1220238667341e-17
4.3060918929631e-17
5.873680567461e-18
1.2153047302399e-17
1.6045042111125e-18
3.3708902705244e-18
4.3183281842081e-19
9.2034293818314e-19
1.1453162112094e-19
2.4745330180987e-19
2.9974251398644e-20
6.558344366834e-20
7.7521028643242e-21
1.7156671190014e-20
1.9836136854071e-21
4.4358483031324e-21
5.0264556519477e-22
1.1347566174078e-21
1.2622965234154e-22
2.87476530194e-22
3.1436934455564e-23
7.2178098531007e-23
7.7687540911136e-24
1.7972085523545e-23
1.9059900436658e-24
4.4405267725943e-24
4.6446092016805e-25
1.0892762396423e-24
1.1246492062604e-25
2.6540505244668e-25
2.706987854891e-26
6.4257988176362e-26
6.4789302621608e-27
1.5465112701991e-26
1.5424143674812e-27
3.7011176351718e-27
3.6534300503922e-28
8.8104670342367e-28
8.6121856957962e-29
2.0867571626656e-28
2.0208802162184e-29
4.9188349041629e-29
4.7214565958686e-30
1.1541739227519e-29
1.0985152867096e-30
2.6964490536994e-30
2.5457213470788e-31
6.2735191440083e-31
5.8771188703866e-32
1.4538110463277e-31
1.3518730790188e-32
3.3562658459987e-32
3.0987709397871e-33
7.7201392525386e-33
7.0792157706272e-34
1.7696132481508e-33
1.6120521213427e-34
4.0427403100546e-34
3.6595178312994e-35
9.2060544479144e-35
8.2826420485814e-36
2.0898921905533e-35
1.8692206972202e-36
4.730162992631e-36
4.2067107333942e-37
1.0675211736819e-36
9.4418331991766e-38
2.4025290707317e-37
2.1136863083138e-38
5.3925437738177e-38
4.7198923313042e-39
1.2072310801771e-38
1.0513948551277e-39
2.695848942547e-39