/*--------------------------------*- C++ -*----------------------------------*\
  =========                 |
  \\      /  F ield         | OpenFOAM: The Open Source CFD Toolbox
   \\    /   O peration     | Website:  https://openfoam.org
    \\  /    A nd           | Version:  7
     \\/     M anipulation  |
\*---------------------------------------------------------------------------*/
FoamFile
{
    version     2.0;
    format      ascii;
    class       volScalarField;
    location    "1.3";
    object      alpha.water;
}
// * * * * * * * * * * * * * * * * * * * * * * * * * * * * * * * * * * * * * //

dimensions      [0 0 0 0 0 0 0];

internalField   nonuniform List<scalar> 
6000
(
0
0
0
0
0
0
0
0
0
0
0
0
0
0
0
0
0
0
0
0
0
0
0
0
0
0
0
0
0
0
0
0
0
0
0
0
0
0
0
0
0
0
0
0
0
0
0
0
0
0
0
0
0
0
0
0
0
0
0
0
0
0
0
0
0
0
0
0
0
0
0
0
0
0
0
0
0
0
0
0
0
0
0
0
0
0
0
0
0
0
0
0
0
0
0
0
0
0
0
0
0
0
0
0
0
0
0
0
0
0
0
0
0
0
0
0
0
0
0
0
0
0
0
0
0
0
0
0
0
0
0
0
0
0
0
0
0
0
0
0
0
0
0
0
0
0
0
0
0
0
0
0
0
0
0
0
0
0
0
0
0
0
0
0
0
0
0
0
0
0
0
0
0
0
0
0
0
0
0
0
0
0
0
0
0
0
0
0
0
0
0
0
0
0
0
0
0
0
0
0
0
0
0
0
0
0
0
0
0
0
0
0
0
0
0
0
0
0
0
0
0
0
0
0
0
0
0
0
0
0
0
0
0
0
0
0
0
0
0
0
0
0
0
0
0
0
0
0
0
0
0
0
0
0
0
0
0
0
0
0
0
0
0
0
0
0
0
0
0
0
0
0
0
0
0
0
0
0
0
0
0
0
0
0
0
0
0
0
0
0
0
0
0
0
0
0
0
0
0
0
0
0
0
0
0
0
0
0
0
0
0
0
0
0
0
0
0
0
0
0
0
0
0
0
0
0
0
0
0
0
0
0
0
0
0
0
0
0
0
0
0
0
0
0
0
0
0
0
0
0
0
0
0
0
0
0
0
0
0
0
0
0
0
0
0
0
0
0
0
0
0
0
0
0
0
0
0
0
0
0
0
0
0
0
0
0
0
0
0
0
0
0
0
0
0
0
0
0
0
0
0
0
0
0
0
0
0
0
0
2.6146753687629e-47
1.0956388623849e-45
2.2736847401484e-44
3.1152029817796e-43
3.1698606302302e-42
2.5547643844241e-41
1.6986201201405e-40
9.582051548351e-40
4.6810122274955e-39
2.0115491062851e-38
7.6979551158222e-38
2.6496502641555e-37
8.2703630007628e-37
2.3570021063647e-36
6.1691059444244e-36
1.4903312965539e-35
3.3375352719085e-35
6.9550536111384e-35
1.3531977616796e-34
2.4654685430958e-34
4.2176260005318e-34
6.7905024011703e-34
1.031178726449e-33
1.4798206627173e-33
2.0104574389236e-33
2.5899483862058e-33
3.1683818599786e-33
3.6857039036744e-33
4.0820508201584e-33
4.3093056025834e-33
4.3407451806171e-33
4.176104831742e-33
3.8407779828961e-33
3.3796278344267e-33
2.8474432914832e-33
2.2987309152477e-33
1.7793264682781e-33
1.3213692150463e-33
9.4197893031021e-34
6.4496442486706e-34
4.2434596030889e-34
2.6840489577999e-34
1.6327820340891e-34
9.5565387876043e-35
5.383460112155e-35
2.9197918064189e-35
1.525108286495e-35
7.6740590936175e-36
3.720757251036e-36
1.7386594794432e-36
7.8317659999208e-37
3.4012734609235e-37
1.4243768350403e-37
5.7526089007036e-38
2.2408206993415e-38
8.4195332889379e-39
3.0516488310359e-39
1.0670007465658e-39
3.5990439024182e-40
1.171119935235e-40
3.6761878723658e-41
1.1131591684413e-41
3.2512603540274e-42
9.1589025540359e-43
2.4881982551604e-43
6.5180729167757e-44
1.6461858461003e-44
4.0076189341845e-45
9.4027271737621e-46
2.125602629067e-46
4.6287197235516e-47
9.7066254022812e-48
1.9596123280182e-48
3.8073234106393e-49
7.1163473671935e-50
1.2791116111762e-50
2.2099645949772e-51
3.6684624886347e-52
5.8476973140423e-53
8.9464505871893e-54
1.3128846963529e-54
1.846876304076e-55
2.4887956580004e-56
3.2104321980755e-57
3.9611329918089e-58
4.6707881009616e-59
5.258733228334e-60
5.6476486794051e-61
5.7795275944669e-62
5.6293983305443e-63
5.7121260687715e-64
0
0
0
0
0
0
0
-2.4166444357879e-37
-8.9585862272402e-36
-1.6364133958859e-34
-1.9612269461909e-33
-1.7318036693968e-32
-1.1987644509058e-31
-6.7516744815287e-31
-3.1659296727304e-30
-1.2516104672563e-29
-4.1816224339793e-29
-1.1658785313505e-28
-2.5894030175429e-28
-3.8377710848446e-28
6.4636496722695e-29
3.0772347481697e-27
1.4177897540162e-26
4.6250304440121e-26
1.2537579479594e-25
2.9802708836534e-25
6.3740158667033e-25
1.2449934886342e-24
2.2427397238388e-24
3.7524209109326e-24
5.8629944736758e-24
8.5923024490526e-24
1.1854735559653e-23
1.544798997908e-23
1.906817863485e-23
2.2353921367953e-23
2.4949904631611e-23
2.6573143998917e-23
2.7064005652223e-23
2.6409314776691e-23
2.4734074312351e-23
2.2267507626564e-23
1.9295013836205e-23
1.6108855544696e-23
1.2967739890618e-23
1.0070843658278e-23
7.5472390876691e-24
5.4583382150132e-24
3.8092565576699e-24
2.5646701280173e-24
1.66534116286e-24
1.0425698274473e-24
6.2904411932296e-25
3.6566092054385e-25
2.0471756836014e-25
1.1035253278403e-25
5.725941994065e-26
2.8592424477355e-26
1.373757838672e-26
6.3496839037845e-27
2.8230185247658e-27
1.207088016475e-27
4.9633632111136e-28
1.9623455204887e-28
7.4591180949386e-29
2.7255882481763e-29
9.572779147786e-30
3.2311683354051e-30
1.0479886826444e-30
3.2655204640849e-31
9.773739643612e-32
2.8092125734703e-32
7.7520211759662e-33
2.0531932047131e-33
5.2178681595265e-34
1.2719014246694e-34
2.9726454902772e-35
6.6585045260435e-36
1.4287288851349e-36
2.9352001548709e-37
5.7702366888009e-38
1.0847934375852e-38
1.9489549940761e-39
3.343750522218e-40
5.4737989213735e-41
8.542386370198e-42
1.2696415631272e-42
1.7952740729508e-43
2.4122373595694e-44
3.0760388664521e-45
3.7173559885882e-46
4.250829056295e-47
4.5916371483178e-48
4.676215753772e-49
4.4806744424761e-50
4.0299498080705e-51
3.3933537796319e-52
2.6672144730631e-53
1.9505056351133e-54
1.409809377846e-55
0
0
0
0
0
0
-1.0720426529982e-35
-4.2319244752337e-34
-8.2557932114996e-33
-1.061065003826e-31
-1.0105629361627e-30
-7.6061894884069e-30
-4.7117945869163e-29
-2.4702723215079e-28
-1.1185823266915e-27
-4.4426524413904e-27
-1.5663241659222e-26
-4.94919000354e-26
-1.4123532247942e-25
-3.6628470988475e-25
-8.6765459154255e-25
-1.8847652114251e-24
-3.7657492705229e-24
-6.934109420008e-24
-1.17769199745e-23
-1.8436440395339e-23
-2.6525809352347e-23
-3.4845376575149e-23
-4.1225855748576e-23
-4.2635195041847e-23
-3.5633211824725e-23
-1.7143992950303e-23
1.4622073298206e-23
5.9367206270613e-23
1.1430918276392e-22
1.7437478117289e-22
2.3299320665692e-22
2.8330736374491e-22
3.194873847979e-22
3.3780348805875e-22
3.3719862439533e-22
3.1925875370837e-22
2.8765073074596e-22
2.4722788651495e-22
2.0305716213759e-22
1.5959555773902e-22
1.2016060650498e-22
8.6735983548833e-23
6.0064032272455e-23
3.9923907014706e-23
2.5482206148579e-23
1.5623380893677e-23
9.2038452748989e-24
5.2110007991964e-24
2.8360539953696e-24
1.4839482058431e-24
7.4660424435094e-25
3.6122233656545e-25
1.6807583275379e-25
7.521528504104e-26
3.2373556371303e-26
1.3401739186871e-26
5.3359389111546e-27
2.0432487756277e-27
7.5242483144138e-28
2.6643782032138e-28
9.0712507942305e-29
2.9690160457926e-29
9.3401727219705e-30
2.8236060963216e-30
8.200803581244e-31
2.2876727671477e-31
6.1275082801988e-32
1.5753544384248e-32
3.8860882358857e-33
9.1940231062946e-34
2.085247448482e-34
4.5315844106256e-35
9.4307028243468e-36
1.8783600762163e-36
3.5782476556419e-37
6.5149261769848e-38
1.1328169263599e-38
1.8795550509324e-39
2.9730149154449e-40
4.4787001774138e-41
6.4186958584526e-42
8.7410830302921e-43
1.1296473204655e-43
1.3834432190556e-44
1.6030301641802e-45
1.7544319188266e-46
1.810174857385e-47
1.7570307058493e-48
1.6006486528313e-49
1.36500575118e-50
1.0864742777398e-51
8.0447254145074e-53
5.5204456457531e-54
3.7103006031852e-55
0
0
0
0
0
3.5589876009341e-37
-1.9521169726163e-34
-7.8558555300905e-33
-1.5265152509947e-31
-1.9444038325848e-30
-1.8327952884687e-29
-1.3651569476591e-28
-8.3730027246052e-28
-4.3498769255254e-27
-1.9538536669005e-26
-7.7071558398082e-26
-2.7025868805217e-25
-8.5073257909338e-25
-2.4232443283926e-24
-6.2871451426074e-24
-1.4939776427914e-23
-3.2662910700238e-23
-6.5952234124527e-23
-1.233674809273e-22
-2.1428925496648e-22
-3.4621596816686e-22
-5.2071859415195e-22
-7.2892960174478e-22
-9.481943318046e-22
-1.1418277822433e-21
-1.263425625657e-21
-1.2658171042272e-21
-1.112915372679e-21
-7.9116816866696e-22
-3.1680922261461e-22
2.6395330379421e-22
8.8253851928839e-22
1.4615693898116e-21
1.9306575675582e-21
2.2400143758452e-21
2.3683999526946e-21
2.3238915793208e-21
2.1381904348805e-21
1.8568868473312e-21
1.5287795426512e-21
1.196961203107e-21
8.9328847761947e-22
6.3656595937252e-22
4.3374459656634e-22
2.8290758870013e-22
1.7679439416384e-22
1.059333545361e-22
6.0899255281787e-23
3.3607679986278e-23
1.7811854329469e-23
9.0696360110255e-24
4.4383291944561e-24
2.0879115395841e-24
9.4440572381383e-25
4.1079811566706e-25
1.7185827904184e-25
6.9153462209365e-26
2.6765127832426e-26
9.9638920193327e-27
3.567532139744e-27
1.2284116314869e-27
4.0672281904503e-28
1.2946638825882e-28
3.9612178579898e-29
1.1646812540949e-29
3.289801112507e-30
8.9243752925424e-31
2.3242166009414e-31
5.8089011404486e-32
1.3926449869693e-32
3.2011642516707e-33
7.0513020960764e-34
1.4875678161123e-34
3.0037294750111e-35
5.8013447724129e-36
1.0709336599447e-36
1.8880682779886e-37
3.1762884807527e-38
5.0940500348172e-39
7.7804792477805e-40
1.1304974837146e-40
1.5607395159439e-41
2.0446486208585e-42
2.5381129592553e-43
2.9807381725638e-44
3.3060247019198e-45
3.4564418912676e-46
3.3991972145879e-47
3.1371002263447e-48
2.7098659807279e-49
2.184531332134e-50
1.638021074293e-51
1.1381395525796e-52
7.2964980881975e-54
4.5370027419871e-55
0
0
0
0
0
7.185681737746e-36
-1.7416505306193e-33
-7.218383960176e-32
-1.4035948506591e-30
-1.7777412801428e-29
-1.6627056325132e-28
-1.2279761337786e-27
-7.4669067911088e-27
-3.8464326180858e-26
-1.7136569810868e-25
-6.7070703308466e-25
-2.3344909346989e-24
-7.2970949939962e-24
-2.0647680652673e-23
-5.3238005047341e-23
-1.2577473252183e-22
-2.735210096398e-22
-5.4965494873269e-22
-1.023951613363e-21
-1.7728827299674e-21
-2.8586021092382e-21
-4.2982433705409e-21
-6.0307874434036e-21
-7.8940584780102e-21
-9.625842362076e-21
-1.089822356837e-20
-1.138332427028e-20
-1.0835496133048e-20
-9.1655422372653e-21
-6.4817616975958e-21
-3.0818475930999e-21
6.0439085849777e-22
4.1053008336726e-21
7.0044058466918e-21
9.0174747667983e-21
1.003140068111e-20
1.0099958457237e-20
9.4043913050752e-21
8.1950003779571e-21
6.731687681309e-21
5.23753886919e-21
3.8725676665448e-21
2.7276309394361e-21
1.8334795246697e-21
1.1778358721985e-21
7.2394193376604e-22
4.2612440719769e-22
2.403920677468e-22
1.3005915573606e-22
6.7521701474704e-23
3.3654028990161e-23
1.6110194605341e-23
7.4094371485315e-24
3.2750249699768e-24
1.3915151079893e-24
5.684333908354e-25
2.2327502603347e-25
8.4332884253156e-26
3.06305456044e-26
1.0697845653714e-26
3.5923894532167e-27
1.1597308626908e-27
3.5986465061807e-28
1.0730787538662e-28
3.0740997779099e-29
8.4579153994553e-30
2.2341607360901e-30
5.6636889577584e-31
1.3772971848317e-31
3.2113618175305e-32
7.1755310935494e-33
1.5355746504849e-33
3.1453318424645e-34
6.16231056469e-35
1.1539310883706e-35
2.0636010244918e-36
3.5212925826671e-37
5.7279331792425e-38
8.8729323443391e-39
1.3074505183051e-39
1.8303963756673e-40
2.4313778255853e-41
3.059989143639e-42
3.6430121646153e-43
4.0956273271977e-44
4.3397860707446e-45
4.3249917841706e-46
4.0443687717221e-47
3.5393705464729e-48
2.8902411250802e-49
2.1949984680953e-50
1.5445092774391e-51
1.0026083717726e-52
5.9744360702163e-54
3.4167149821339e-55
0
0
0
0
3.4863823287257e-47
7.2346507860878e-35
-1.0101627526607e-32
-4.3580218608516e-31
-8.5034654693393e-30
-1.0724675745014e-28
-9.9616041894402e-28
-7.2984987722586e-27
-4.400771544552e-26
-2.2476606463716e-25
-9.928237608915e-25
-3.8526557618293e-24
-1.329515075997e-23
-4.1200240912967e-23
-1.1556345431249e-22
-2.9532316900386e-22
-6.9135900561013e-22
-1.4894766239473e-21
-2.9646218780063e-21
-5.4692044564e-21
-9.3772088702172e-21
-1.49750810758e-20
-2.2311903074456e-20
-3.1049332096658e-20
-4.0372872063632e-20
-4.9025125874348e-20
-5.5491142351482e-20
-5.8312803231473e-20
-5.6454086279737e-20
-4.960696896387e-20
-3.8335319991975e-20
-2.400113606163e-20
-8.486839373445e-21
6.2072219118577e-21
1.8373812358571e-20
2.6906029520591e-20
3.1429551353654e-20
3.2249291828319e-20
3.0155765666946e-20
2.6168443482122e-20
2.1294365466527e-20
1.6356525462074e-20
1.1912308917775e-20
8.2520324518476e-21
5.4501204725171e-21
3.4379856033872e-21
2.0741998356348e-21
1.198150767354e-21
6.6321571240768e-22
3.5202585863309e-22
1.7927009213873e-22
8.7628955463539e-23
4.112937705571e-23
1.8541769284291e-23
8.0306462385964e-24
3.342213921615e-24
1.3367993213273e-24
5.1391375959366e-25
1.8990223650629e-25
6.7451099501048e-26
2.3027650021198e-26
7.5556752164131e-27
2.3823209480233e-27
7.2168833495864e-28
2.1000015733024e-28
5.8679626061931e-29
1.5740170386722e-29
4.0515561816673e-30
1.0003221692946e-30
2.3678693763543e-31
5.3709127053705e-32
1.166705772412e-32
2.4256302707136e-33
4.8232573400692e-34
9.1661162900208e-35
1.6634436237935e-35
2.8802313529039e-36
4.7536763490175e-37
7.4707796741427e-38
1.1167317051992e-38
1.585799614501e-39
2.1364219061945e-40
2.7266848631438e-41
3.2915673089982e-42
3.7517506147707e-43
4.0299137260712e-44
4.0706859427778e-45
3.8576942910481e-46
3.4208730634825e-47
2.8302030588626e-48
2.1773538124873e-49
1.5517991716132e-50
1.0201548496725e-51
6.155482976975e-53
3.3892899292906e-54
1.7704068210079e-55
0
0
0
0
7.4199431720199e-46
4.8404381371612e-34
-4.2540825619202e-32
-1.9395929256101e-30
-3.8095383394095e-29
-4.7905633731666e-28
-4.4219531011594e-27
-3.2149749750435e-26
-1.9223554425173e-25
-9.7327966144672e-25
-4.260661387822e-24
-1.6382115322255e-23
-5.6001927246467e-23
-1.7186270448436e-22
-4.7722323867544e-22
-1.2068236004403e-21
-2.794542174914e-21
-5.9528298841038e-21
-1.1710987822172e-20
-2.1349800819256e-20
-3.6173782232321e-20
-5.7105529702316e-20
-8.4167614431217e-20
-1.1600666409666e-19
-1.4966348513522e-19
-1.8076183904466e-19
-2.041729139853e-19
-2.1505215155595e-19
-2.1000162915178e-19
-1.8803688779229e-19
-1.5105721274357e-19
-1.0363307000534e-19
-5.211285069459e-20
-3.2659184053009e-21
3.7155327149821e-20
6.551350316707e-20
8.0745884582371e-20
8.4123656435241e-20
7.8491342535686e-20
6.7307770152725e-20
5.3803434173045e-20
4.0448727616265e-20
2.8772058228901e-20
1.9448740787078e-20
1.2533032828356e-20
7.7178288183381e-21
4.5494861840469e-21
2.5703685380403e-21
1.3930413200276e-21
7.2462249252993e-22
3.6190324266339e-22
1.7357991249648e-22
7.9963023872307e-23
3.538322829453e-23
1.5040057139166e-23
6.1413695349548e-24
2.4091315849799e-24
9.0791627411248e-25
3.2871790793002e-25
1.143362779575e-25
3.8203573965481e-26
1.2261449968079e-26
3.7795190647567e-27
1.1186801630283e-27
3.1786721116e-28
8.6682019284641e-29
2.2678066640292e-29
5.68989109895e-30
1.3684432411846e-30
3.1532251606256e-31
6.9573672878426e-32
1.4690216603121e-32
2.9662687522241e-33
5.7236142286463e-34
1.0545265324844e-34
1.8534930798882e-35
3.1049648308012e-36
4.9522760435628e-37
7.5118451792298e-38
1.082306817629e-38
1.4792348677783e-39
1.9150277824044e-40
2.3446241733708e-41
2.7100274923594e-42
2.9514969834198e-43
3.0224401368018e-44
2.9033368311796e-45
2.6092862335316e-46
2.1875255735447e-47
1.705105713206e-48
1.2310660918771e-49
8.1973567886233e-51
5.0092554295865e-52
2.793003058518e-53
1.4113126990278e-54
6.6801757166901e-56
0
0
0
0
7.8111617137155e-45
2.4196572262846e-33
-1.3714489148913e-31
-6.7670812123222e-30
-1.3433944641645e-28
-1.6870394509617e-27
-1.5486552884375e-26
-1.1176784442644e-25
-6.6276140037455e-25
-3.3258261572379e-24
-1.4424552570009e-23
-5.4929495373067e-23
-1.8590539036e-22
-5.6461391594584e-22
-1.5508950024318e-21
-3.8778713112409e-21
-8.8745622517838e-21
-1.8675043646395e-20
-3.6281614416013e-20
-6.530589328321e-20
-1.0924440209749e-19
-1.7028771610403e-19
-2.4789188783552e-19
-3.3756818722369e-19
-4.3044939190629e-19
-5.1407164827907e-19
-5.7445839244055e-19
-5.9911205444466e-19
-5.8011258332526e-19
-5.1639237109202e-19
-4.1447621092645e-19
-2.8743072151832e-19
-1.522630016754e-19
-2.640525310074e-20
7.5829237636355e-20
1.4588228016433e-19
1.8197171349097e-19
1.8830744414524e-19
1.7294076845573e-19
1.4511919063494e-19
1.130444058873e-19
8.2582028046635e-20
5.6987561421175e-20
3.735205867321e-20
2.335204755697e-20
1.3970063606327e-20
8.015421003502e-21
4.4172619521555e-21
2.3400990049874e-21
1.1920781666558e-21
5.8391688915271e-22
2.7496379458666e-22
1.244364717809e-22
5.4105198188018e-23
2.2596540482375e-23
9.0631046735082e-24
3.4905242381851e-24
1.2907699938154e-24
4.5827695986073e-25
1.5620897619803e-25
5.1115651838523e-26
1.6055715629425e-26
4.8403080188039e-27
1.4002387005211e-27
3.8860771773949e-28
1.0343575993174e-28
2.6395152386181e-29
6.4549117258953e-30
1.5120342985606e-30
3.3908176384945e-31
7.2754211904541e-32
1.4925697972629e-32
2.9256150947192e-33
5.4746823245065e-34
9.7719493701847e-35
1.6621547102597e-35
2.6914140876047e-36
4.143999926791e-37
6.0597839160912e-38
8.4045235807682e-39
1.1039644186512e-39
1.3711698515965e-40
1.6075443026882e-41
1.7755602442e-42
1.8436850265601e-43
1.7955369195276e-44
1.6357562045111e-45
1.3898963979551e-46
1.0978588121942e-47
8.0311492720529e-49
5.4176397256463e-50
3.3534822734521e-51
1.8938539938231e-52
9.6932148271233e-54
4.4619731615146e-55
1.9006890627231e-56
0
0
0
0
5.4230784865408e-44
9.6327446290266e-33
-3.4527301763988e-31
-1.9200670483948e-29
-3.875033081472e-28
-4.8698119467313e-27
-4.450039331895e-26
-3.1894921060203e-25
-1.8759244627414e-24
-9.3300913575222e-24
-4.0086391870901e-23
-1.5116219935216e-22
-5.0645317193839e-22
-1.5222934745691e-21
-4.1374999255578e-21
-1.023489942352e-20
-2.3169067385734e-20
-4.8220622611161e-20
-9.2638225404895e-20
-1.6484239814631e-19
-2.7247457358087e-19
-4.1935262674479e-19
-6.0198005769525e-19
-8.0683403619353e-19
-1.009918928978e-18
-1.1797364068701e-18
-1.2837713575022e-18
-1.2970139268572e-18
-1.2095902609274e-18
-1.0302910930386e-18
-7.8434859214391e-19
-5.0656869719464e-19
-2.3298644858004e-19
5.9069010351404e-21
1.8913693319253e-19
3.068305928506e-19
3.6008438748435e-19
3.5923090757293e-19
3.2049204663202e-19
2.6165872058249e-19
1.9811104358613e-19
1.4040608950055e-19
9.3843858942425e-20
5.9528669132613e-20
3.6032151863297e-20
2.0901828498322e-20
1.1656760400868e-20
6.2618891976097e-21
3.2427652503586e-21
1.6187500666967e-21
7.7844746222452e-22
3.6031684280902e-22
1.6038176279428e-22
6.8596167826627e-23
2.8174428837495e-23
1.1107996518779e-23
4.2026555486727e-24
1.5256344138421e-24
5.3134546839923e-25
1.7753232894309e-25
5.6901675456339e-26
1.7493694110688e-26
5.1581010640197e-27
1.4583758877284e-27
3.9528793711603e-28
1.0268038082785e-28
2.5552190362773e-29
6.0889694848311e-30
1.3887173650545e-30
3.0296233492839e-31
6.3181336120812e-32
1.2586489900653e-32
2.3932870951126e-33
4.339951480929e-34
7.4983441905325e-35
1.2330746478069e-35
1.9278338674024e-36
2.8620352145004e-37
4.0292690607013e-38
5.3714442080109e-39
6.7698262953586e-40
8.0524282576551e-41
9.0220307228296e-42
9.501409218776e-43
9.3833038157914e-44
8.6669943261136e-45
7.4653520604956e-46
5.9767295425076e-47
4.4307670513181e-48
3.0285704265238e-49
1.899368358046e-50
1.0867958713623e-51
5.63741258062e-53
2.6328482433729e-54
1.1007236400162e-55
4.2758641386915e-57
0
0
0
0
2.7934202496038e-43
3.1788099229201e-32
-6.6792150869784e-31
-4.5301860716531e-29
-9.3745624145602e-28
-1.1824133185811e-26
-1.0770294557087e-25
-7.6714201894034e-25
-4.4768183686266e-24
-2.2071907485764e-23
-9.3954012736538e-23
-3.5092394771131e-22
-1.1645656283799e-21
-3.4681572846412e-21
-9.344157066332e-21
-2.292880199071e-20
-5.1522862650885e-20
-1.0649623840767e-19
-2.032060875605e-19
-3.5893241567505e-19
-5.8809877239178e-19
-8.9504234508659e-19
-1.266216965978e-18
-1.6652275282501e-18
-2.0343397227166e-18
-2.3045159647176e-18
-2.4133191622564e-18
-2.3266646282677e-18
-2.0557853507142e-18
-1.6575603487961e-18
-1.2122383540459e-18
-7.8915726300194e-19
-4.2367872603985e-19
-1.2044580791724e-19
1.2529256448683e-19
3.1058366706043e-19
4.2528960686174e-19
4.6439817615594e-19
4.3745346673743e-19
3.670692857414e-19
2.7966632839406e-19
1.9628779059579e-19
1.2848992168795e-19
7.9303587917919e-20
4.6581748006086e-20
2.6233259312766e-20
1.4237426391964e-20
7.4673903125683e-21
3.787882769772e-21
1.8570127237354e-21
8.7857497282435e-22
4.0044306787741e-22
1.7555420176208e-22
7.3932875425266e-23
2.9882910278773e-23
1.1585354972194e-23
4.3067223520133e-24
1.5348244667991e-24
5.2433713371016e-25
1.7170623168676e-25
5.3897391477613e-26
1.6215289501979e-26
4.6752392411903e-27
1.2915905128044e-27
3.418042728079e-28
8.6620430256525e-29
2.1012628103294e-29
4.8770019997537e-30
1.0824346142332e-30
2.2959284554457e-31
4.6507427319237e-32
8.9899982374475e-33
1.6569204711164e-33
2.9089992654581e-34
4.8600649097838e-35
7.718136105691e-36
1.163658462964e-36
1.6634262597003e-37
2.2512050668665e-38
2.8798437396549e-39
3.4762177261969e-40
3.9518002534377e-41
4.2219376299148e-42
4.2289842564233e-43
3.9612288258176e-44
3.4595482389847e-45
2.807826323341e-46
2.1098878376144e-47
1.4616457084419e-48
9.2901131463424e-50
5.3881102759491e-51
2.8349987087934e-52
1.3461612150401e-53
5.7645701900148e-55
2.2664623435151e-56
9.2983360488056e-58
0
0
0
0
1.1386779984336e-42
8.9363839359077e-32
-8.9247477290954e-31
-8.9893622685185e-29
-1.9330901831907e-27
-2.4574689989559e-26
-2.2355815555288e-25
-1.5840638741392e-24
-9.1775220914202e-24
-4.4872327838955e-23
-1.8932827001823e-22
-7.0095046542831e-22
-2.3071987775068e-21
-6.8235566970211e-21
-1.8289923642494e-20
-4.4738424539686e-20
-1.0039320554514e-19
-2.0745009972608e-19
-3.9568839693481e-19
-6.9757437628584e-19
-1.1373068698966e-18
-1.7153023766812e-18
-2.3939876821495e-18
-3.0930103580851e-18
-3.6994267877729e-18
-4.0947220926551e-18
-4.1974833392725e-18
-4.009483610866e-18
-3.6328844437164e-18
-3.2235480369203e-18
-2.8908246814219e-18
-2.620873978342e-18
-2.3013996952931e-18
-1.8324653474391e-18
-1.2214496229968e-18
-5.8213986223877e-19
-5.4626164957738e-20
2.7659077209876e-19
4.1013060174389e-19
4.0227433859387e-19
3.2374434643262e-19
2.2916560294146e-19
1.4787483159649e-19
8.9031645657557e-20
5.0855995239209e-20
2.7885849502064e-20
1.4784910872836e-20
7.6042130433057e-21
3.7944230302141e-21
1.8336255864243e-21
8.5588979037105e-22
3.8489140549275e-22
1.6639201629423e-22
6.9041698278527e-23
2.7467614705154e-23
1.0471130094283e-23
3.8237857149575e-24
1.3374181779412e-24
4.4802625551823e-25
1.4374895452293e-25
4.4174004234852e-26
1.3000675365787e-26
3.6639606922862e-27
9.8864009281244e-28
2.5533537759756e-28
6.3098256128129e-29
1.4913202915629e-29
3.3693869132148e-30
7.272806743013e-31
1.4987688158745e-31
2.9466172797367e-32
5.5221489595957e-33
9.8557326814964e-34
1.6735070248992e-34
2.700493777202e-35
4.1362772737397e-36
6.005531288445e-37
8.2535148839368e-38
1.0719697142636e-38
1.313485415585e-39
1.5154239317502e-40
1.6428173398568e-41
1.6694398281268e-42
1.5861446978607e-43
1.4048645287588e-44
1.1561572768888e-45
8.808013426759e-47
6.1858189683159e-48
3.9859897470098e-49
2.3447115607414e-50
1.2529947736356e-51
6.0687122948039e-53
2.6854341714448e-54
1.1331501788227e-55
5.1797814641642e-57
3.374981135361e-58
0
0
0
0
3.8261222586969e-42
2.1827003303089e-31
-3.3534104517611e-31
-1.4999929893822e-28
-3.4286520616248e-27
-4.4214600911423e-26
-4.0285597778625e-25
-2.8440352331594e-24
-1.6374531181482e-23
-7.945794609748e-23
-3.3258774073863e-22
-1.2221330938244e-21
-3.9987081430227e-21
-1.1786074220502e-20
-3.1588476088432e-20
-7.7518353089338e-20
-1.7494960985854e-19
-3.6388706393402e-19
-6.9782746191542e-19
-1.2335497431172e-18
-2.0103960383738e-18
-3.0246813146621e-18
-4.2117979110999e-18
-5.4448217455019e-18
-6.5456584878872e-18
-7.3229127602572e-18
-7.7053969315357e-18
-7.9096119045831e-18
-8.3595720909093e-18
-9.1337768954602e-18
-9.5068041258347e-18
-8.4971189751584e-18
-6.0462274912874e-18
-3.2383234316159e-18
-1.1987949907179e-18
-1.8117748477927e-19
2.0922513084244e-19
3.6285566575083e-19
4.210394670933e-19
4.0067748087994e-19
3.2282840809996e-19
2.2697863750274e-19
1.4382962783524e-19
8.4547911911395e-20
4.7154618576211e-20
2.5332637914303e-20
1.3215596474522e-20
6.7110377859752e-21
3.3127601581575e-21
1.5844363820839e-21
7.3157536420849e-22
3.2505627721412e-22
1.3865425601552e-22
5.668761980385e-23
2.2192721695543e-23
8.315518010443e-24
2.9815572857275e-24
1.0229705604019e-24
3.3586971750047e-25
1.055334066833e-25
3.173421325359e-26
9.1319581350541e-27
2.5144585954156e-27
6.6233665976086e-28
1.6685470645484e-28
4.0184394603976e-29
9.2476698554858e-30
2.0324635696743e-30
4.2633555210235e-31
8.5291199092112e-32
1.6260293469975e-32
2.9514294840732e-33
5.0954637259642e-34
8.3580769892175e-35
1.3010025570529e-35
1.9192290172608e-36
2.6793247958022e-37
3.5341617963634e-38
4.3969856695531e-39
5.1499150326617e-40
5.6663511098834e-41
5.8431580018744e-42
5.6324801514743e-43
5.0604987792559e-44
4.2238478893368e-45
3.2632453045215e-46
2.324005015247e-47
1.5189016032489e-48
9.0693914258727e-50
4.9315422937451e-51
2.4476923572142e-52
1.1328029181831e-53
5.2654668660984e-55
2.8811273395829e-56
2.10109370238e-57
2.0654848184685e-58
0
0
0
0
1.0899989104659e-41
4.7007196002057e-31
2.3936724108685e-30
-2.0656859047947e-28
-5.2396968095733e-27
-6.9258586742289e-26
-6.3481623816169e-25
-4.4757350591685e-24
-2.5647622188259e-23
-1.2367260170535e-22
-5.1424139978178e-22
-1.8791537525468e-21
-6.1302986036135e-21
-1.8088313216623e-20
-4.8758824012678e-20
-1.2082905223861e-19
-2.7593813016356e-19
-5.8035529800149e-19
-1.1220658893725e-18
-1.9931234799757e-18
-3.2598538988649e-18
-4.932671186731e-18
-6.9480149208717e-18
-9.1423097185573e-18
-1.1209889551147e-17
-1.2823030139565e-17
-1.3553887731282e-17
-1.3438064499927e-17
-1.1674863749328e-17
-8.0832148376336e-18
-7.6431588188581e-18
-1.1011616727687e-17
-1.3826419259671e-17
-1.1557910996131e-17
-5.8327576173458e-18
-1.4642491739357e-18
1.3223539647518e-19
4.1047226865504e-19
4.059429393035e-19
3.5887392973236e-19
2.8093638389229e-19
1.9265376462103e-19
1.1895731997421e-19
6.8369436505121e-20
3.750683702209e-20
1.9934766927046e-20
1.0328971202686e-20
5.2176783257932e-21
2.5610708451247e-21
1.2160330645417e-21
5.562068226162e-22
2.4428184560366e-22
1.0279182270744e-22
4.1387406903504e-23
1.5934113074567e-23
5.8644392563188e-24
2.0632756340454e-24
6.940044344108e-25
2.2320029600692e-25
6.8642829055138e-26
2.0187212331249e-26
5.6769571390219e-27
1.5263383565201e-27
3.9226445737611e-28
9.6328803868051e-29
2.2594267244941e-29
5.0591944452607e-30
1.0807925241956e-30
2.2012971229699e-31
4.2711821354831e-32
7.8880110995126e-33
1.3851967749197e-33
2.3105214667745e-34
3.6563340381129e-35
5.4821501496267e-36
7.7768142103291e-37
1.0421106951986e-37
1.3168461909089e-38
1.5661620502902e-39
1.7494576450153e-40
1.8311362825284e-41
1.7912647045879e-42
1.6329061793964e-43
1.3826664852429e-44
1.0835786123995e-45
7.8283736317239e-47
5.1923435925535e-48
3.1505593817162e-49
1.7475920741816e-50
8.9448487095597e-52
4.393922548721e-53
2.302453220747e-54
1.503823392607e-55
1.2664851829728e-56
1.20813509769e-57
1.2821036304635e-58
0
0
0
0
2.6874522027075e-41
9.0280444614195e-31
9.37816321788e-30
-2.1973149486292e-28
-6.837773954701e-27
-9.4375862163763e-26
-8.7653029766425e-25
-6.1952849982103e-24
-3.542093197753e-23
-1.700621657029e-22
-7.0393094179057e-22
-2.5650351928987e-21
-8.3754945090996e-21
-2.4866890805709e-20
-6.781159491306e-20
-1.7060279055658e-19
-3.9567562583359e-19
-8.4269562521358e-19
-1.6426362151778e-18
-2.9331445529193e-18
-4.8244226983792e-18
-7.4274180805448e-18
-1.0961778025311e-17
-1.5524808195003e-17
-2.059219479204e-17
-2.5045374414567e-17
-2.7291314302616e-17
-1.2051453732882e-16
-1.8697388752526e-16
-7.4240023117946e-17
7.8062556418956e-17
1.3877787807814e-17
0.0042521387542958
8.2399365108898e-18
5.9854014712099e-18
2.2739852530275e-18
3.2264166562504e-19
3.3226316691886e-19
3.1426107032363e-19
2.7659053249798e-19
2.0996007046423e-19
1.391850824285e-19
8.3903627801969e-20
4.7623687006178e-20
2.602647581659e-20
1.3845973761603e-20
7.1886063599522e-21
3.6327554648667e-21
1.7783210041274e-21
8.391522800274e-22
3.8020429724724e-22
1.6495204113171e-22
6.8414808227592e-23
2.7103797872787e-23
1.0253301142996e-23
3.7038343056599e-24
1.2777927665358e-24
4.2109171288083e-25
1.325796000823e-25
3.9884946441177e-26
1.1465276317918e-26
3.1489931223693e-27
8.2621846476702e-28
2.070304586802e-28
4.9525230727145e-29
1.1304879319623e-29
2.4609622222243e-30
5.1056902882644e-31
1.0087502636771e-31
1.8963530797542e-32
3.3887843295508e-33
5.7503585882271e-34
9.2546692640604e-35
1.4108433817124e-35
2.0343679955043e-36
2.7703358777429e-37
3.5566302214158e-38
4.2965814313046e-39
4.873865253163e-40
5.1794022779878e-41
5.1430240225497e-42
4.7581741368621e-43
4.0884230051409e-44
3.2511483693292e-45
2.3837305194433e-46
1.6056801228605e-47
9.914962615116e-49
5.6292382338293e-50
2.9949770691357e-51
1.5865934463612e-52
9.5071281585297e-54
7.2537167544075e-55
6.7555086378599e-56
6.7388297938165e-57
6.6319916298673e-58
6.8537648493957e-59
0
0
0
0
5.8253972226289e-41
1.560018454862e-30
2.2911008963753e-29
-1.3403869914177e-28
-7.3883921583725e-27
-1.1064844844856e-25
-1.0550990342435e-24
-7.5249078959758e-24
-4.310278555847e-23
-2.0672179695143e-22
-8.5455779047147e-22
-3.117157259205e-21
-1.023791502077e-20
-3.0759912062794e-20
-8.5311735457072e-20
-2.1867325431573e-19
-5.1561188054216e-19
-1.1112134906305e-18
-2.1824669254114e-18
-3.9214464628891e-18
-6.4974492288802e-18
-1.0241306006453e-17
-1.5985203313833e-17
-2.4049483629754e-17
-3.2117416270623e-17
-3.4837436795109e-17
-3.9620638781111e-17
-9.6428926229216e-17
-1.2143064331838e-16
0.18677685205286
0.6972750904293
0.96355211427425
0.97410517782923
0.74720669574948
0.29965256355674
1.2973406898136e-19
1.7587770826673e-19
1.9966328292744e-19
2.0747401015888e-19
1.8039277913272e-19
1.3209213224638e-19
8.5535399336999e-20
5.1207082144965e-20
2.9198883220185e-20
1.6118928079249e-20
8.6657913273708e-21
4.5327311053425e-21
2.2966180700151e-21
1.1214453963489e-21
5.2546900414966e-22
2.3554126781618e-22
1.0081655900683e-22
4.1165723317756e-23
1.6030258876881e-23
5.9534241089635e-24
2.1091836113329e-24
7.1303117672369e-25
2.3007311797713e-25
7.0871900824443e-26
2.0843968742838e-26
5.8531058816173e-27
1.5690825685998e-27
4.0148086055398e-28
9.8017370101799e-29
2.2823090717949e-29
5.0658076656569e-30
1.0711530813268e-30
2.1560805918655e-31
4.1278771473089e-32
7.5098143412227e-33
1.2969329713896e-33
2.1236720939821e-34
3.2929259318889e-35
4.8282211385697e-36
6.6838556475784e-37