/*--------------------------------*- C++ -*----------------------------------*\
  =========                 |
  \\      /  F ield         | OpenFOAM: The Open Source CFD Toolbox
   \\    /   O peration     | Website:  https://openfoam.org
    \\  /    A nd           | Version:  7
     \\/     M anipulation  |
\*---------------------------------------------------------------------------*/
FoamFile
{
    version     2.0;
    format      ascii;
    class       volScalarField;
    location    "0.04";
    object      T;
}
// * * * * * * * * * * * * * * * * * * * * * * * * * * * * * * * * * * * * * //

dimensions      [0 0 0 1 0 0 0];

internalField   nonuniform List<scalar> 
12225
(
1.00689
1.0041
1.00171
1.00089
1.00043
1.00012
0.999964
0.999897
0.999863
0.999838
0.999813
0.999761
0.999638
0.999321
0.998521
0.996577
0.991534
0.979312
0.995136
0.994812
0.996745
0.998334
0.999127
0.999464
0.999644
0.999763
0.999836
0.999874
0.999882
0.999855
0.999746
0.999448
0.998682
0.996829
0.992232
0.981413
0.999619
1.00005
1.00023
1.00028
1.0002
1.00008
0.999991
0.999952
0.999931
0.999912
0.999885
0.999836
0.999717
0.999427
0.998708
0.997006
0.992992
0.984308
1.00032
1.00017
0.999777
0.999749
0.999819
0.999835
0.999837
0.99985
0.999862
0.999866
0.999857
0.999821
0.999718
0.999457
0.998812
0.997316
0.99397
0.987223
1.00014
0.999947
0.999658
0.999701
0.999818
0.999857
0.999862
0.999871
0.99988
0.999882
0.999872
0.999837
0.999742
0.999505
0.998938
0.997664
0.994961
0.989844
1.00002
0.999951
0.999769
0.999773
0.999847
0.999872
0.999872
0.999876
0.999883
0.999884
0.999875
0.999843
0.999758
0.999551
0.999067
0.998017
0.995894
0.992082
0.999995
1
0.999864
0.999822
0.999858
0.999877
0.999879
0.999882
0.999887
0.999888
0.99988
0.999852
0.999778
0.999601
0.999201
0.99836
0.996734
0.993933
0.999995
1.00002
0.999917
0.999858
0.999872
0.999888
0.999889
0.999891
0.999895
0.999895
0.999888
0.999863
0.9998
0.999654
0.999331
0.998676
0.997458
0.995429
0.999995
1.00002
0.999951
0.999894
0.999893
0.999902
0.999902
0.999902
0.999904
0.999903
0.999897
0.999875
0.999823
0.999705
0.999453
0.998957
0.998063
0.996613
0.999995
1.00002
0.999976
0.999926
0.999916
0.999918
0.999916
0.999915
0.999915
0.999914
0.999907
0.999888
0.999846
0.999754
0.999561
0.999195
0.998554
0.997534
0.999996
1.00002
0.999992
0.999953
0.999938
0.999934
0.999931
0.999927
0.999926
0.999924
0.999918
0.999903
0.99987
0.999799
0.999656
0.999392
0.998941
0.998236
0.999997
1.00001
1
0.999971
0.999954
0.999949
0.999944
0.99994
0.999937
0.999934
0.999928
0.999916
0.99989
0.999835
0.999729
0.999537
0.999215
0.998718
0.999997
1.00001
1.00001
0.999984
0.999968
0.999962
0.999957
0.999952
0.999948
0.999944
0.99994
0.999929
0.999908
0.999868
0.999791
0.999654
0.999428
0.999085
0.999997
1.00001
1.00001
0.999993
0.999981
0.999974
0.999968
0.999964
0.99996
0.999955
0.999952
0.999944
0.999928
0.999899
0.999847
0.999756
0.99961
0.99939
0.999998
1.00001
1.00001
1
0.999991
0.999985
0.999981
0.999977
0.999972
0.999967
0.999963
0.999958
0.999947
0.999929
0.999895
0.99984
0.999752
0.999623
0.999998
1.00001
1.00001
1
0.999998
0.999994
0.999991
0.999988
0.999983
0.999979
0.999975
0.999971
0.999965
0.999953
0.999933
0.999902
0.999855
0.999786
0.999998
1.00001
1.00001
1.00001
1
0.999999
0.999998
0.999996
0.999992
0.999989
0.999985
0.999981
0.999978
0.999972
0.999962
0.999945
0.999922
0.99989
0.999999
1.00001
1.00001
1.00001
1
1
1
0.999998
0.999995
0.999993
0.999992
0.999991
0.999987
0.999982
0.999977
0.999972
0.999962
0.999948
1
1.00001
1.00001
1.00001
1
1
1
0.999999
0.999998
0.999996
0.999994
0.999992
0.99999
0.999987
0.999985
0.999982
0.999977
0.999971
0.999999
1.00001
1.00001
1.00001
1.00001
1
0.999998
0.999996
0.999993
0.999991
0.999989
0.999987
0.999985
0.999982
0.99998
0.999978
0.999975
0.999972
0.999997
1.00001
1.00001
1.00001
1
0.999998
0.999993
0.999988
0.999985
0.999982
0.999979
0.999976
0.999973
0.999972
0.99997
0.999968
0.999967
0.999965
0.999997
1.00001
1.00002
1.00001
0.999995
0.999988
0.999982
0.999975
0.999969
0.999965
0.999964
0.999963
0.99996
0.999959
0.999958
0.999958
0.999956
0.999955
0.999996
1.00003
1.00003
0.999996
0.999972
0.999966
0.999961
0.999956
0.999952
0.999949
0.999948
0.999947
0.999946
0.999945
0.999945
0.999944
0.999944
0.999944
0.999989
1.00005
1.00004
0.999983
0.999948
0.999938
0.999932
0.999929
0.999929
0.999931
0.999932
0.999933
0.999932
0.999933
0.999934
0.999934
0.999935
0.999935
0.99999
1.00004
0.999992
0.999937
0.999931
0.999929
0.999917
0.999909
0.999908
0.99991
0.999912
0.999915
0.999917
0.999918
0.999919
0.999921
0.999923
0.999925
1.00013
1.00009
0.999825
0.999756
0.999837
0.999896
0.999909
0.999912
0.999916
0.999918
0.99992
0.999921
0.999922
0.999922
0.999923
0.999924
0.999925
0.999926
1.0005
1.00053
0.999952
0.999665
0.999667
0.999718
0.999754
0.999789
0.99982
0.999844
0.999861
0.999875
0.999885
0.999893
0.9999
0.999905
0.999909
0.999915
1.00004
1.0008
1.00096
1.0008
1.00056
1.00034
1.00018
1.00009
1.00003
0.999996
0.99997
0.999954
0.999943
0.999935
0.99993
0.999925
0.999921
0.999921
0.994604
0.993791
0.995838
0.997661
0.998662
0.999144
0.999416
0.999594
0.99971
0.999782
0.999829
0.999863
0.999887
0.999905
0.999918
0.999928
0.999933
0.99993
1.00635
1.00419
1.00178
1.00096
1.00054
1.00023
1.00005
0.999977
0.999939
0.999915
0.9999
0.999891
0.999888
0.999886
0.999885
0.999886
0.999888
0.999899
0.406974
0.406921
0.406788
0.406589
0.406333
0.406017
0.405641
0.405206
0.404716
0.404171
0.403573
0.402925
0.402227
0.401482
0.400692
0.399861
0.398991
0.398086
0.397149
0.396185
0.395197
0.394189
0.393165
0.39213
0.391088
0.390043
0.388998
0.387957
0.386922
0.385897
0.384894
0.383928
0.383043
0.382306
0.381594
0.380812
0.380061
0.379319
0.378598
0.377906
0.377229
0.376614
0.376081
0.375571
0.375116
0.37474
0.37441
0.374131
0.373904
0.373728
0.373602
0.373524
0.373495
0.373513
0.373576
0.373685
0.373838
0.374034
0.374271
0.374549
0.374865
0.375218
0.375607
0.37603
0.376485
0.376972
0.377487
0.378029
0.378598
0.37919
0.379804
0.380438
0.381091
0.381761
0.382446
0.383144
0.383854
0.384573
0.385301
0.386036
0.386776
0.387519
0.388265
0.389011
0.389756
0.390499
0.391238
0.391973
0.392701
0.393423
0.394135
0.394838
0.395529
0.396209
0.396874
0.397525
0.398159
0.398774
0.399373
0.399955
0.400517
0.401058
0.401577
0.402074
0.402546
0.402993
0.403415
0.403809
0.404176
0.404513
0.404821
0.405098
0.405342
0.405554
0.405731
0.405873
0.405979
0.406047
0.406077
0.406067
0.406016
0.405923
0.405787
0.405605
0.405378
0.405103
0.40478
0.404407
0.403983
0.403508
0.402978
0.402394
0.401754
0.401057
0.4003
0.399483
0.398604
0.397662
0.396655
0.395582
0.394441
0.393231
0.391949
0.390595
0.389165
0.387659
0.386076
0.384413
0.382668
0.380841
0.378929
0.37693
0.374844
0.372669
0.370403
0.368044
0.365592
0.363044
0.360399
0.357656
0.354813
0.351867
0.348815
0.34565
0.342371
0.338986
0.335493
0.331894
0.328186
0.324368
0.320438
0.316394
0.312236
0.307962
0.303577
0.299084
0.294512
0.289852
0.285323
0.28054
0.40854
0.408477
0.408354
0.408164
0.407914
0.407604
0.407233
0.406801
0.406309
0.405759
0.405153
0.404494
0.403785
0.403029
0.40223
0.401389
0.400512
0.399601
0.39866
0.397692
0.396703
0.395697
0.394678
0.393652
0.392624
0.3916
0.390586
0.389588
0.388612
0.387661
0.386735
0.385828
0.384933
0.383957
0.382951
0.382054
0.381228
0.380469
0.37977
0.379119
0.378527
0.377974
0.377437
0.376965
0.376557
0.376183
0.375854
0.375575
0.375346
0.375167
0.375038
0.374957
0.374925
0.37494
0.375001
0.375107
0.375257
0.37545
0.375685
0.375959
0.376272
0.376623
0.377009
0.37743
0.377882
0.378366
0.378879
0.379419
0.379985
0.380575
0.381188
0.38182
0.382472
0.383141
0.383824
0.384522
0.385231
0.38595
0.386678
0.387413
0.388153
0.388897
0.389644
0.390391
0.391138
0.391882
0.392623
0.39336
0.39409
0.394813
0.395528
0.396233
0.396927
0.397609
0.398278
0.398933
0.399573
0.400198
0.400804
0.401391
0.401958
0.402503
0.403027
0.403527
0.404004
0.404456
0.404882
0.405281
0.405652
0.405994
0.406306
0.406587
0.406836
0.407052
0.407233
0.40738
0.40749
0.407562
0.407596
0.40759
0.407543
0.407454
0.40732
0.407142
0.406918
0.406646
0.406326
0.405956
0.405535
0.405062
0.404535
0.403953
0.403314
0.402618
0.401863
0.401047
0.400169
0.399227
0.398221
0.397148
0.396007
0.394796
0.393514
0.392158
0.390727
0.38922
0.387635
0.385969
0.384222
0.382392
0.380477
0.378476
0.376386
0.374207
0.371937
0.369574
0.367117
0.364564
0.361914
0.359165
0.356316
0.353365
0.350312
0.347156
0.343896
0.340529
0.337055
0.333471
0.329778
0.325974
0.322056
0.318024
0.313876
0.309612
0.305235
0.30075
0.296181
0.29153
0.286963
0.282276
0.411746
0.411651
0.411508
0.411306
0.41104
0.410711
0.410318
0.409864
0.409351
0.40878
0.408154
0.407475
0.406747
0.405972
0.405154
0.404296
0.403401
0.402474
0.401517
0.400536
0.399533
0.398514
0.397484
0.396446
0.395406
0.394367
0.393334
0.39231
0.391297
0.390297
0.389313
0.388351
0.387416
0.386503
0.385614
0.384765
0.383955
0.383191
0.382476
0.381812
0.381203
0.380649
0.380144
0.379686
0.379273
0.378901
0.378577
0.378301
0.378073
0.377894
0.377763
0.377681
0.377646
0.377658
0.377716
0.377819
0.377966
0.378156
0.378387
0.378658
0.378968
0.379315
0.379698
0.380116
0.380567
0.381048
0.38156
0.382099
0.382664
0.383254
0.383866
0.3845
0.385153
0.385823
0.386509
0.38721
0.387922
0.388646
0.389379
0.390119
0.390866
0.391616
0.39237
0.393125
0.39388
0.394634
0.395385
0.396132
0.396873
0.397608
0.398335
0.399053
0.39976
0.400456
0.401138
0.401807
0.402461
0.403098
0.403719
0.404321
0.404903
0.405465
0.406006
0.406524
0.407018
0.407487
0.407931
0.408348
0.408737
0.409098
0.409428
0.409728
0.409995
0.41023
0.41043
0.410595
0.410723
0.410814
0.410866
0.410878
0.410849
0.410778
0.410662
0.410502
0.410295
0.41004
0.409736
0.409383
0.408978
0.40852
0.408009
0.407442
0.406818
0.406136
0.405394
0.404591
0.403726
0.402796
0.401801
0.400739
0.399609
0.398408
0.397135
0.395788
0.394365
0.392865
0.391286
0.389627
0.387885
0.38606
0.384149
0.382151
0.380065
0.377888
0.375619
0.373257
0.370801
0.368248
0.365597
0.362847
0.359997
0.357045
0.353991
0.350835
0.347576
0.34421
0.340737
0.337154
0.333461
0.329655
0.325735
0.321701
0.317549
0.31328
0.308895
0.3044
0.299812
0.295139
0.290515
0.285826
0.416545
0.416417
0.416248
0.416024
0.415734
0.415378
0.414958
0.414475
0.413933
0.413334
0.412679
0.411973
0.411218
0.410417
0.409574
0.408691
0.407773
0.406823
0.405845
0.404844
0.403823
0.402787
0.40174
0.400687
0.399631
0.398577
0.397529
0.39649
0.395465
0.394456
0.393468
0.392507
0.391574
0.390668
0.389793
0.388956
0.388158
0.387401
0.386688
0.38602
0.3854
0.384829
0.384306
0.383832
0.383407
0.38303
0.382701
0.38242
0.382188
0.382004
0.381868
0.38178
0.381739
0.381744
0.381795
0.381891
0.382031
0.382214
0.382438
0.382702
0.383006
0.383347
0.383725
0.384137
0.384583
0.385061
0.385569
0.386105
0.386668
0.387256
0.387868
0.388502
0.389156
0.389828
0.390518
0.391222
0.391939
0.392669
0.393408
0.394156
0.394911
0.395672
0.396436
0.397203
0.39797
0.398737
0.399503
0.400265
0.401022
0.401774
0.402519
0.403255
0.403982
0.404697
0.405401
0.406092
0.406768
0.407428
0.408072
0.408698
0.409306
0.409893
0.410459
0.411003
0.411524
0.41202
0.412491
0.412936
0.413353
0.413741
0.4141
0.414428
0.414724
0.414987
0.415216
0.41541
0.415567
0.415686
0.415767
0.415808
0.415807
0.415763
0.415676
0.415542
0.415362
0.415134
0.414857
0.41453
0.41415
0.413718
0.413231
0.412687
0.412087
0.411428
0.410708
0.409926
0.409082
0.408172
0.407196
0.406153
0.40504
0.403855
0.402598
0.401265
0.399857
0.39837
0.396803
0.395155
0.393424
0.391608
0.389706
0.387715
0.385635
0.383464
0.3812
0.378842
0.376389
0.373838
0.371188
0.368439
0.365588
0.362636
0.35958
0.356421
0.353157
0.349786
0.346307
0.342718
0.339018
0.335204
0.331276
0.327232
0.323069
0.318787
0.314387
0.309871
0.305254
0.300543
0.295851
0.291099
0.422937
0.422776
0.42258
0.422332
0.422017
0.421631
0.421179
0.420664
0.420088
0.419454
0.418765
0.418024
0.417235
0.416401
0.415525
0.414611
0.413662
0.412684
0.411678
0.410651
0.409606
0.408547
0.407478
0.406405
0.405331
0.40426
0.403197
0.402145
0.401109
0.400092
0.399098
0.398131
0.397193
0.396285
0.39541
0.394572
0.393774
0.393017
0.392302
0.391632
0.391008
0.390431
0.3899
0.389418
0.388984
0.388598
0.388261
0.387972
0.387731
0.387538
0.387393
0.387296
0.387245
0.387241
0.387282
0.387368
0.387497
0.38767
0.387884
0.388139
0.388434
0.388766
0.389136
0.389541
0.38998
0.390451
0.390953
0.391485
0.392045
0.39263
0.393241
0.393874
0.394528
0.395202
0.395894
0.396602
0.397325
0.39806
0.398807
0.399564
0.400329
0.4011
0.401877
0.402657
0.403439
0.404222
0.405005
0.405785
0.406562
0.407334
0.4081
0.408858
0.409608
0.410348
0.411077
0.411794
0.412497
0.413186
0.413858
0.414514
0.415151
0.415769
0.416367
0.416943
0.417496
0.418026
0.418531
0.419009
0.419461
0.419884
0.420278
0.420641
0.420973
0.421271
0.421536
0.421765
0.421958
0.422113
0.42223
0.422306
0.42234
0.422331
0.422278
0.42218
0.422034
0.421839
0.421595
0.4213
0.420953
0.420552
0.420095
0.419582
0.419011
0.41838
0.417688
0.416933
0.416115
0.41523
0.414278
0.413258
0.412167
0.411003
0.409766
0.408453
0.407062
0.405591
0.40404
0.402407
0.400689
0.398885
0.396993
0.395013
0.392941
0.390778
0.38852
0.386167
0.383717
0.381169
0.378522
0.375773
0.372922
0.369968
0.36691
0.363746
0.360477
0.3571
0.353613
0.350016
0.346307
0.342484
0.338545
0.334488
0.330312
0.326014
0.321593
0.317053
0.312403
0.307648
0.302888
0.29804
0.430946
0.430755
0.430533
0.43026
0.429917
0.4295
0.429013
0.428461
0.427847
0.427174
0.426446
0.425666
0.424838
0.423965
0.423051
0.4221
0.421117
0.420104
0.419067
0.41801
0.416936
0.415851
0.414758
0.413662
0.412567
0.411478
0.410398
0.409332
0.408284
0.407256
0.406254
0.405278
0.404332
0.403418
0.402538
0.401695
0.400892
0.40013
0.39941
0.398734
0.398103
0.397518
0.396979
0.396488
0.396044
0.395648
0.3953
0.394999
0.394746
0.394541
0.394383
0.394272
0.394208
0.39419
0.394217
0.394289
0.394405
0.394564
0.394764
0.395006
0.395288
0.395608
0.395966
0.39636
0.396789
0.397251
0.397745
0.39827
0.398823
0.399403
0.400009
0.40064
0.401292
0.401966
0.402659
0.403369
0.404096
0.404837
0.40559
0.406355
0.407129
0.407911
0.4087
0.409494
0.410291
0.411091
0.411891
0.41269
0.413487
0.414281
0.41507
0.415853
0.416628
0.417395
0.418151
0.418897
0.41963
0.420349
0.421053
0.421741
0.422412
0.423065
0.423698
0.42431
0.4249
0.425467
0.426009
0.426526
0.427017
0.427479
0.427913
0.428316
0.428688
0.429027
0.429332
0.429602
0.429836
0.430032
0.430189
0.430305
0.43038
0.430411
0.430398
0.430339
0.430232
0.430076
0.42987
0.429613
0.429302
0.428937
0.428516
0.428038
0.427501
0.426903
0.426243
0.42552
0.424731
0.423876
0.422953
0.421959
0.420894
0.419755
0.418541
0.41725
0.41588
0.414429
0.412896
0.41128
0.409577
0.407788
0.405909
0.403941
0.40188
0.399725
0.397475
0.395128
0.392684
0.390139
0.387494
0.384746
0.381895
0.37894
0.375879
0.372711
0.369437
0.366053
0.362559
0.358953
0.355234
0.351401
0.34745
0.34338
0.339188
0.334872
0.33043
0.325863
0.321178
0.316377
0.311548
0.306596
0.44061
0.440396
0.44015
0.439851
0.439477
0.439026
0.438503
0.437912
0.437258
0.436543
0.435772
0.434949
0.434077
0.433162
0.432207
0.431216
0.430193
0.429143
0.428071
0.42698
0.425875
0.42476
0.423641
0.42252
0.421403
0.420293
0.419195
0.418113
0.41705
0.416009
0.414994
0.414007
0.41305
0.412127
0.411238
0.410386
0.409574
0.408802
0.408073
0.407387
0.406745
0.406149
0.405599
0.405095
0.404637
0.404227
0.403863
0.403547
0.403278
0.403056
0.402881
0.402752
0.40267
0.402634
0.402643
0.402696
0.402794
0.402934
0.403117
0.403342
0.403606
0.40391
0.404252
0.404631
0.405045
0.405494
0.405975
0.406489
0.407031
0.407603
0.408201
0.408825
0.409473
0.410143
0.410834
0.411543
0.412271
0.413014
0.413771
0.414541
0.415323
0.416114
0.416913
0.417718
0.418529
0.419343
0.42016
0.420977
0.421794
0.422608
0.42342
0.424226
0.425027
0.42582
0.426604
0.427378
0.428142
0.428892
0.429629
0.430351
0.431057
0.431745
0.432414
0.433064
0.433692
0.434298
0.43488
0.435438
0.435969
0.436474
0.436949
0.437395
0.43781
0.438192
0.438541
0.438854
0.439132
0.439372
0.439573
0.439733
0.439851
0.439926
0.439956
0.439939
0.439875
0.439762
0.439597
0.439381
0.439111
0.438786
0.438404
0.437964
0.437464
0.436903
0.436279
0.43559
0.434835
0.434012
0.43312
0.432157
0.431121
0.430009
0.428822
0.427556
0.426209
0.424781
0.423269
0.421672
0.419988
0.418215
0.416352
0.414397
0.412348
0.410204
0.407963
0.405624
0.403186
0.400647
0.398005
0.395259
0.392409
0.389453
0.38639
0.383219
0.379939
0.376549
0.373048
0.369434
0.365705
0.361861
0.357898
0.353814
0.349606
0.345272
0.340808
0.336214
0.331495
0.326648
0.321754
0.316698
0.451991
0.451757
0.451486
0.451159
0.450754
0.450267
0.449706
0.449074
0.448377
0.447617
0.446801
0.445933
0.445016
0.444055
0.443056
0.442021
0.440957
0.439867
0.438757
0.43763
0.436491
0.435345
0.434195
0.433048
0.431906
0.430773
0.429654
0.428552
0.427471
0.426413
0.425382
0.42438
0.423409
0.422472
0.42157
0.420705
0.419879
0.419094
0.418351
0.41765
0.416993
0.416381
0.415814
0.415293
0.414817
0.414388
0.414004
0.413668
0.413378
0.413134
0.412937
0.412786
0.412681
0.412621
0.412606
0.412636
0.41271
0.412828
0.412987
0.413189
0.413431
0.413713
0.414034
0.414392
0.414787
0.415217
0.41568
0.416177
0.416704
0.417261
0.417847
0.418459
0.419096
0.419758
0.420441
0.421145
0.421869
0.422609
0.423366
0.424137
0.424921
0.425716
0.426521
0.427335
0.428155
0.42898
0.429809
0.430641
0.431474
0.432306
0.433137
0.433964
0.434787
0.435604
0.436413
0.437214
0.438005
0.438785
0.439553
0.440307
0.441046
0.441768
0.442473
0.443159
0.443825
0.444469
0.445091
0.445688
0.44626
0.446806
0.447324
0.447812
0.44827
0.448696
0.449089
0.449447
0.449769
0.450054
0.450299
0.450504
0.450668
0.450787
0.450862
0.45089
0.45087
0.4508
0.450679
0.450506
0.450278
0.449995
0.449654
0.449254
0.448794
0.448272
0.447686
0.447034
0.446315
0.445527
0.444669
0.443738
0.442733
0.441652
0.440493
0.439254
0.437934
0.436531
0.435042
0.433467
0.431803
0.430049
0.428203
0.426264
0.424229
0.422098
0.419869
0.417539
0.415109
0.412576
0.40994
0.407198
0.40435
0.401394
0.39833
0.395157
0.391874
0.388479
0.384972
0.38135
0.377613
0.373758
0.369784
0.365687
0.361464
0.357113
0.352629
0.348009
0.343258
0.338368
0.333415
0.328264
0.465162
0.464907
0.464612
0.464255
0.463815
0.463292
0.462691
0.462016
0.461274
0.460469
0.459606
0.458689
0.457725
0.456717
0.45567
0.45459
0.453482
0.45235
0.451198
0.450032
0.448857
0.447676
0.446495
0.445317
0.444147
0.442988
0.441844
0.440719
0.439616
0.438537
0.437486
0.436465
0.435475
0.434519
0.433599
0.432717
0.431873
0.431069
0.430306
0.429586
0.428909
0.428276
0.427687
0.427142
0.426643
0.426189
0.425781
0.425419
0.425102
0.424831
0.424606
0.424427
0.424293
0.424204
0.42416
0.424161
0.424205
0.424293
0.424423
0.424595
0.424808
0.425062
0.425355
0.425686
0.426054
0.426458
0.426897
0.42737
0.427875
0.428411
0.428976
0.42957
0.43019
0.430836
0.431505
0.432197
0.432909
0.43364
0.434389
0.435154
0.435934
0.436727
0.437531
0.438346
0.439169
0.439999
0.440835
0.441675
0.442517
0.443361
0.444205
0.445048
0.445887
0.446722
0.447552
0.448375
0.449189
0.449994
0.450787
0.451569
0.452336
0.453089
0.453825
0.454544
0.455243
0.455923
0.45658
0.457215
0.457825
0.458409
0.458966
0.459495
0.459994
0.460461
0.460896
0.461296
0.461661
0.461989
0.462279
0.462527
0.462735
0.462898
0.463017
0.463089
0.463112
0.463086
0.463009
0.462879
0.462694
0.462452
0.462153
0.461795
0.461375
0.460892
0.460345
0.459731
0.45905
0.458298
0.457475
0.456578
0.455606
0.454557
0.453428
0.452219
0.450927
0.44955
0.448086
0.446535
0.444893
0.44316
0.441334
0.439412
0.437394
0.435278
0.433062
0.430745
0.428325
0.425801
0.423171
0.420435
0.417591
0.414639
0.411576
0.408403
0.405118
0.401721
0.398209
0.394582
0.390838
0.386975
0.382991
0.378883
0.374648
0.370282
0.365781
0.361139
0.35636
0.351432
0.346429
0.341194
0.480205
0.47993
0.479608
0.479219
0.478743
0.478181
0.477538
0.476819
0.47603
0.475177
0.474265
0.473298
0.472284
0.471226
0.47013
0.469002
0.467847
0.466669
0.465474
0.464267
0.463052
0.461833
0.460616
0.459404
0.458202
0.457013
0.45584
0.454688
0.453558
0.452454
0.451378
0.450332
0.449319
0.44834
0.447396
0.44649
0.445622
0.444794
0.444006
0.44326
0.442557
0.441897
0.44128
0.440707
0.440178
0.439694
0.439254
0.43886
0.43851
0.438206
0.437946
0.437732
0.437563
0.437438
0.437358
0.437321
0.437329
0.437379
0.437473
0.437608
0.437785
0.438002
0.438259
0.438555
0.438888
0.439258
0.439664
0.440105
0.440579
0.441085
0.441621
0.442187
0.442781
0.443402
0.444048
0.444717
0.445409
0.446122
0.446854
0.447604
0.44837
0.449152
0.449946
0.450752
0.451569
0.452395
0.453228
0.454067
0.454911
0.455758
0.456607
0.457456
0.458303
0.459149
0.45999
0.460827
0.461656
0.462478
0.46329
0.464091
0.464881
0.465656
0.466417
0.467162
0.467889
0.468596
0.469284
0.469949
0.470591
0.471209
0.4718
0.472364
0.472899
0.473403
0.473875
0.474314
0.474718
0.475085
0.475414
0.475703
0.475951
0.476156
0.476316
0.476429
0.476494
0.47651
0.476474
0.476384
0.476241
0.47604
0.475782
0.475463
0.475083
0.474639
0.47413
0.473555
0.47291
0.472195
0.471407
0.470545
0.469607
0.46859
0.467493
0.466314
0.465051
0.463702
0.462265
0.460739
0.459122
0.457412
0.455607
0.453705
0.451706
0.449607
0.447407
0.445104
0.442697
0.440184
0.437564
0.434837
0.432
0.429053
0.425995
0.422825
0.419541
0.416143
0.41263
0.409001
0.405253
0.401385
0.397395
0.39328
0.389036
0.384659
0.380144
0.375486
0.370686
0.365728
0.360684
0.355381
0.497216
0.49692
0.496568
0.496144
0.49563
0.495026
0.494338
0.493572
0.492735
0.491831
0.490866
0.489847
0.48878
0.487669
0.486521
0.485342
0.484136
0.482909
0.481667
0.480414
0.479155
0.477895
0.476638
0.475388
0.474149
0.472925
0.471718
0.470533
0.469372
0.468237
0.46713
0.466055
0.465012
0.464003
0.46303
0.462093
0.461195
0.460336
0.459518
0.45874
0.458004
0.45731
0.456658
0.456049
0.455484
0.454963
0.454485
0.454051
0.453661
0.453316
0.453015
0.452758
0.452545
0.452377
0.452252
0.452171
0.452133
0.452138
0.452186
0.452275
0.452406
0.452578
0.452789
0.45304
0.453329
0.453655
0.454018
0.454416
0.454848
0.455313
0.455809
0.456337
0.456893
0.457478
0.458089
0.458725
0.459385
0.460067
0.460771
0.461493
0.462234
0.462992
0.463764
0.464551
0.465349
0.466159
0.466977
0.467804
0.468637
0.469475
0.470317
0.471162
0.472006
0.472851
0.473693
0.474532
0.475366
0.476194
0.477014
0.477826
0.478626
0.479415
0.480191
0.480952
0.481696
0.482424
0.483132
0.483819
0.484485
0.485128
0.485745
0.486336
0.486899
0.487433
0.487936
0.488406
0.488842
0.489243
0.489606
0.489929
0.490212
0.490452
0.490648
0.490798
0.490901
0.490953
0.490955
0.490903
0.490797
0.490635
0.490414
0.490133
0.48979
0.489383
0.488911
0.488371
0.487763
0.487083
0.48633
0.485502
0.484597
0.483612
0.482547
0.481399
0.480166
0.478846
0.477437
0.475938
0.474346
0.47266
0.470879
0.468999
0.467021
0.464941
0.462759
0.460474
0.458082
0.455584
0.452977
0.450261
0.447435
0.444497
0.441446
0.438282
0.435004
0.43161
0.4281
0.424471
0.420724
0.416855
0.412864
0.408746
0.404498
0.400115
0.395593
0.390925
0.386111
0.381132
0.37606
0.370703
0.516303
0.515984
0.5156
0.515137
0.51458
0.513931
0.513194
0.512377
0.511486
0.510527
0.509506
0.50843
0.507305
0.506137
0.504932
0.503697
0.502436
0.501156
0.499861
0.498558
0.49725
0.495943
0.494641
0.493347
0.492065
0.4908
0.489554
0.48833
0.487131
0.485958
0.484815
0.483703
0.482624
0.481579
0.480569
0.479596
0.478661
0.477764
0.476907
0.47609
0.475313
0.474578
0.473884
0.473233
0.472623
0.472057
0.471533
0.471052
0.470614
0.470219
0.469867
0.469559
0.469294
0.469073
0.468894
0.468759
0.468666
0.468616
0.468607
0.468641
0.468715
0.46883
0.468985
0.469179
0.469412
0.469682
0.469989
0.470332
0.470709
0.47112
0.471564
0.472039
0.472545
0.473079
0.473642
0.47423
0.474844
0.475482
0.476142
0.476823
0.477524
0.478244
0.47898
0.479731
0.480497
0.481276
0.482065
0.482865
0.483673
0.484488
0.485309
0.486134
0.486962
0.487791
0.48862
0.489448
0.490273
0.491093
0.491908
0.492716
0.493516
0.494305
0.495083
0.495848
0.496598
0.497333
0.498051
0.498749
0.499427
0.500084
0.500717
0.501325
0.501906
0.50246
0.502983
0.503476
0.503936
0.50436
0.504749
0.505099
0.505409
0.505678
0.505903
0.506083
0.506216
0.5063
0.506333
0.506314
0.50624
0.50611
0.505922
0.505675
0.505365
0.504992
0.504553
0.504047
0.503472
0.502825
0.502105
0.501309
0.500436
0.499484
0.498449
0.497332
0.496128
0.494837
0.493457
0.491985
0.490421
0.488761
0.487004
0.485149
0.483193
0.481136
0.478975
0.476709
0.474336
0.471855
0.469265
0.466564
0.463752
0.460827
0.457788
0.454635
0.451366
0.44798
0.444477
0.440855
0.437113
0.433249
0.429261
0.425145
0.420899
0.416517
0.411995
0.407325
0.402506
0.397517
0.392429
0.387035
0.537588
0.537241
0.53682
0.536314
0.535709
0.535007
0.534216
0.533341
0.53239
0.531369
0.530285
0.529145
0.527956
0.526724
0.525455
0.524157
0.522834
0.521494
0.52014
0.51878
0.517417
0.516056
0.514701
0.513357
0.512026
0.510713
0.50942
0.50815
0.506906
0.505689
0.504502
0.503346
0.502223
0.501134
0.50008
0.499063
0.498082
0.49714
0.496236
0.495371
0.494547
0.493762
0.493018
0.492314
0.491652
0.491031
0.490452
0.489914
0.489419
0.488965
0.488553
0.488184
0.487857
0.487572
0.487329
0.487128
0.486969
0.486851
0.486775
0.48674
0.486746
0.486791
0.486876
0.487001
0.487163
0.487363
0.4876
0.487873
0.488182
0.488524
0.488899
0.489307
0.489745
0.490214
0.490711
0.491236
0.491787
0.492364
0.492964
0.493587
0.494231
0.494895
0.495577
0.496277
0.496993
0.497723
0.498466
0.499221
0.499987
0.500762
0.501545
0.502334
0.503127
0.503925
0.504724
0.505525
0.506324
0.507122
0.507915
0.508704
0.509487
0.510261
0.511026
0.51178
0.512522
0.51325
0.513963
0.514658
0.515335
0.515993
0.516628
0.51724
0.517828
0.518389
0.518922
0.519425
0.519897
0.520336
0.520739
0.521106
0.521434
0.521721
0.521967
0.522168
0.522323
0.52243
0.522487
0.522493
0.522445
0.522342
0.522181
0.521961
0.521679
0.521335
0.520925
0.520448
0.519903
0.519286
0.518595
0.517829
0.516986
0.516063
0.515058
0.51397
0.512796
0.511533
0.510181
0.508738
0.5072
0.505567
0.503837
0.502007
0.500077
0.498044
0.495906
0.493662
0.491311
0.488852
0.486282
0.4836
0.480806
0.477898
0.474876
0.471738
0.468483
0.465111
0.46162
0.45801
0.454279
0.450426
0.446447
0.442341
0.438103
0.43373
0.429215
0.424551
0.419738
0.41475
0.40966
0.404246
0.561203
0.560825
0.560361
0.559803
0.559142
0.55838
0.557523
0.556581
0.555559
0.554466
0.553308
0.552093
0.550829
0.549522
0.54818
0.546809
0.545415
0.544005
0.542584
0.541158
0.53973
0.538307
0.536892
0.535489
0.534101
0.532732
0.531384
0.53006
0.528762
0.527493
0.526253
0.525045
0.52387
0.522728
0.521622
0.520551
0.519517
0.518519
0.51756
0.516639
0.515756
0.514912
0.514108
0.513343
0.512618
0.511933
0.511288
0.510683
0.510119
0.509595
0.509112
0.50867
0.508269
0.507908
0.507588
0.507309
0.507071
0.506873
0.506715
0.506597
0.506519
0.506481
0.506481
0.50652
0.506597
0.506711
0.506862
0.507049
0.50727
0.507526
0.507816
0.508138
0.508492
0.508876
0.50929
0.509732
0.510202
0.510698
0.511219
0.511763
0.512331
0.51292
0.513529
0.514158
0.514804
0.515466
0.516144
0.516835
0.517539
0.518254
0.518979
0.519713
0.520454
0.5212
0.521951
0.522705
0.523461
0.524217
0.524971
0.525723
0.526471
0.527213
0.527948
0.528674
0.52939
0.530095
0.530786
0.531463
0.532124
0.532766
0.533389
0.533991
0.53457
0.535125
0.535653
0.536154
0.536625
0.537065
0.537471
0.537842
0.538176
0.538472
0.538726
0.538938
0.539105
0.539226
0.539298
0.53932
0.53929
0.539205
0.539064
0.538864
0.538604
0.538282
0.537895
0.537443
0.536921
0.53633
0.535665
0.534925
0.534109
0.533213
0.532235
0.531174
0.530027
0.528793
0.527468
0.526052
0.524543
0.522937
0.521234
0.519431
0.517527
0.51552
0.513408
0.51119
0.508864
0.506429
0.503882
0.501224
0.498452
0.495567
0.492565
0.489447
0.486213
0.48286
0.479388
0.475795
0.472082
0.468245
0.464283
0.460194
0.455972
0.451615
0.447116
0.442469
0.437671
0.432697
0.427618
0.422201
0.587301
0.586884
0.586368
0.585749
0.585018
0.584181
0.583245
0.582218
0.581109
0.579927
0.578679
0.577374
0.576019
0.574623
0.573193
0.571735
0.570258
0.568766
0.567265
0.565761
0.564259
0.562763
0.561277
0.559805
0.55835
0.556915
0.555502
0.554115
0.552754
0.551423
0.550121
0.548851
0.547614
0.54641
0.545241
0.544107
0.543008
0.541946
0.540921
0.539932
0.538981
0.538068
0.537192
0.536354
0.535554
0.534793
0.53407
0.533386
0.532741
0.532134
0.531567
0.531038
0.530549
0.530099
0.529688
0.529316
0.528983
0.528689
0.528434
0.528218
0.52804
0.5279
0.527799
0.527735
0.527708
0.527718
0.527764
0.527845
0.527961
0.528112
0.528296
0.528513
0.528761
0.529041
0.52935
0.529689
0.530057
0.530451
0.530872
0.531317
0.531787
0.53228
0.532795
0.53333
0.533885
0.534458
0.535048
0.535655
0.536275
0.536909
0.537556
0.538213
0.53888
0.539555
0.540236
0.540923
0.541615
0.542309
0.543004
0.543699
0.544392
0.545083
0.545769
0.546448
0.547121
0.547784
0.548436
0.549077
0.549703
0.550314
0.550908
0.551483
0.552037
0.55257
0.553079
0.553562
0.554018
0.554444
0.554839
0.555201
0.555529
0.555819
0.556071
0.556282
0.55645
0.556573
0.55665
0.556678
0.556655
0.556579
0.556449
0.556262
0.556015
0.555708
0.555338
0.554903
0.5544
0.553828
0.553184
0.552466
0.551671
0.550799
0.549845
0.548809
0.547687
0.546479
0.545181
0.543791
0.542309
0.54073
0.539055
0.53728
0.535404
0.533425
0.531341
0.529151
0.526853
0.524445
0.521926
0.519295
0.51655
0.51369
0.510715
0.507623
0.504414
0.501086
0.497638
0.494071
0.490381
0.486569
0.482631
0.478565
0.474368
0.470036
0.465563
0.460942
0.45617
0.451222
0.446167
0.440765
0.616964
0.616495
0.615911
0.615209
0.614385
0.613446
0.612401
0.611261
0.610035
0.608733
0.607365
0.60594
0.604468
0.602956
0.601412
0.599845
0.59826
0.596665
0.595064
0.593463
0.591868
0.590281
0.588707
0.587149
0.585611
0.584094
0.582602
0.581135
0.579696
0.578287
0.576908
0.575561
0.574246
0.572965
0.571717
0.570503
0.569325
0.568181
0.567072
0.566
0.564963
0.563961
0.562996
0.562067
0.561175
0.560319
0.559499
0.558716
0.557969
0.557259
0.556587
0.555951
0.555352
0.55479
0.554265
0.553778
0.553327
0.552914
0.552538
0.552199
0.551897
0.551632
0.551403
0.55121
0.551054
0.550933
0.550848
0.550797
0.550781
0.550798
0.550849
0.550933
0.551048
0.551195