/*--------------------------------*- C++ -*----------------------------------*\
  =========                 |
  \\      /  F ield         | OpenFOAM: The Open Source CFD Toolbox
   \\    /   O peration     | Website:  https://openfoam.org
    \\  /    A nd           | Version:  7
     \\/     M anipulation  |
\*---------------------------------------------------------------------------*/
FoamFile
{
    version     2.0;
    format      ascii;
    class       volScalarField;
    location    "0.3";
    object      alpha.water;
}
// * * * * * * * * * * * * * * * * * * * * * * * * * * * * * * * * * * * * * //

dimensions      [0 0 0 0 0 0 0];

internalField   nonuniform List<scalar> 
6000
(
0
0
0
0
0
0
0
0
0
0
0
0
0
0
0
0
0
0
0
0
0
0
0
0
0
0
0
0
0
0
0
0
0
0
0
0
0
0
0
0
0
0
0
0
0
0
0
0
0
0
0
0
0
0
0
0
0
0
0
0
0
0
0
0
0
0
0
0
0
0
0
0
0
0
0
0
0
0
0
0
0
0
0
0
0
0
0
0
0
0
0
0
0
0
0
0
0
0
0
0
0
0
0
0
0
0
0
0
0
0
0
0
0
0
0
0
0
0
0
0
0
0
0
0
0
0
0
0
0
0
0
0
0
0
0
0
0
0
0
0
0
0
0
0
0
0
0
0
0
0
0
0
0
0
0
0
0
0
0
0
0
0
0
0
0
0
0
0
0
0
0
0
0
0
0
0
0
0
0
0
0
0
0
0
0
0
0
0
0
0
0
0
0
0
0
0
0
0
0
0
0
0
0
0
0
0
0
0
0
0
0
0
0
0
0
0
0
0
0
0
0
0
0
0
0
0
0
0
0
0
0
0
0
0
0
0
0
0
0
0
0
0
0
0
0
0
0
0
0
0
0
0
0
0
0
0
0
0
0
0
0
0
0
0
0
0
0
0
0
0
0
0
0
0
0
0
0
0
0
0
0
0
0
0
0
0
0
0
0
0
0
0
0
0
0
0
0
0
0
0
0
0
0
0
0
0
0
0
0
0
0
0
0
0
0
0
0
0
0
0
0
0
0
0
0
0
0
0
0
0
0
0
0
0
0
0
0
0
0
0
0
0
0
0
0
0
0
0
0
0
0
0
0
0
0
0
0
0
0
0
0
0
0
0
0
0
0
0
0
0
0
0
0
0
0
0
0
0
0
0
0
0
0
0
0
0
0
0
0
0
0
0
0
0
0
0
0
0
0
0
0
0
0
0
0
0
0
0
0
5.5837181290471e-31
5.5323689012836e-30
2.6291002658415e-29
7.9551991243586e-29
1.7187211138973e-28
2.8218429379784e-28
3.6620108186061e-28
3.8600505452079e-28
3.3718444248202e-28
2.4788847534491e-28
1.5527358511988e-28
8.3700177653595e-29
3.9147137623221e-29
1.5993084101418e-29
5.7381423489885e-30
1.8157106596157e-30
5.0827657409335e-31
1.2612941865008e-31
2.7775173364298e-32
5.4287142899756e-33
9.4115524359795e-34
1.4452579020756e-34
1.9616451597451e-35
2.3464782331173e-36
2.4642786156572e-37
2.2614259660625e-38
1.8029211028501e-39
1.2400295155735e-40
7.2958281881371e-42
3.6342896482612e-43
1.5132384014827e-44
5.1820086502185e-46
1.4289326782442e-47
3.0830423403959e-49
4.994043492921e-51
5.691569307048e-53
4.0561101630232e-55
1.3561793786151e-57
0
0
0
0
0
0
0
0
0
0
0
0
0
0
0
0
0
0
0
0
0
0
0
0
0
0
0
0
0
0
0
0
0
0
0
0
0
0
0
0
0
0
0
0
0
0
0
0
0
0
0
0
0
0
0
0
0
0
0
0
-5.1619211852735e-21
-2.6172762486912e-20
-4.7962048173389e-20
1.8801392184034e-20
3.577924489765e-19
1.0987436776874e-18
1.985192910053e-18
2.4409044133467e-18
2.2223784753441e-18
1.6938449230706e-18
1.2944375886927e-18
1.0775268910169e-18
8.7319150526045e-19
6.0864732375118e-19
3.4755811158191e-19
1.6132148140314e-19
6.1107198691635e-20
1.8980093726127e-20
4.8439770342123e-21
1.0138612733174e-21
1.7285841287184e-22
2.3696374886397e-23
2.555402792025e-24
2.0917127559624e-25
1.2231343327617e-26
4.5544097518808e-28
8.1137468846956e-30
1.8962607491746e-38
1.365902814992e-39
8.3994805791737e-41
4.3649963518212e-42
1.8928615599341e-43
6.7402224289216e-45
1.9298361544684e-46
4.3175149272821e-48
7.242791035676e-50
8.538369683337e-52
6.2873097975306e-54
2.1698870057841e-56
0
0
0
0
0
0
0
0
0
0
0
0
0
0
0
0
0
0
0
0
0
0
0
0
0
0
0
0
0
0
0
0
0
0
0
0
0
0
0
0
0
0
0
0
0
0
0
0
0
0
0
0
0
0
0
0
0
0
0
0
-2.2898692087586e-19
-1.629163609104e-18
-5.4050184728532e-18
-1.0972921557233e-17
-1.5345037867138e-17
-1.6199768087459e-17
-1.3169760195268e-17
-9.536076610043e-18
-4.602986582727e-18
5.1668333221622e-18
1.2970812056008e-17
1.4745877206076e-17
1.1477526061922e-17
6.4663956658306e-18
2.8426286274023e-18
1.0225918667613e-18
3.1853957354755e-19
9.0501455379478e-20
2.3400309965703e-20
5.2454724007424e-21
9.7425032822126e-22
1.4569542468781e-22
1.7092164912928e-23
1.5149308432461e-24
9.5545322709765e-26
3.8242840382512e-27
7.3023720995974e-29
9.4538201967877e-38
7.150738391014e-39
4.6070216272865e-40
2.5031707669451e-41
1.1327714840481e-42
4.2020339145866e-44
1.2513307524212e-45
2.9074342454836e-47
5.0583967973523e-49
6.1767747100181e-51
4.7055794041317e-53
1.6782719810362e-55
0
0
0
0
0
0
0
0
0
0
0
0
0
0
0
0
0
0
0
0
0
0
0
0
0
0
0
0
0
0
0
0
0
0
0
0
0
0
0
0
0
0
0
0
0
0
0
0
0
0
0
0
0
0
0
0
0
0
0
0
7.6019513765984e-21
-7.4916825614706e-19
-5.1753463243942e-18
-1.624621929198e-17
-4.0593677906205e-17
-6.8515389394418e-17
-6.1720314065976e-17
-5.0224334664432e-17
-1.1691464410003e-16
1.3010426069826e-16
2.7755575615629e-17
-9.7144514654701e-17
1.2663481374631e-16
-1.0803716197382e-17
-2.0490217205325e-18
1.3720037382126e-18
5.1280597436271e-19
1.6497297377416e-19
4.7593247169106e-20
1.1881443289201e-20
2.4466691563464e-21
4.0344484173636e-22
5.1909782096935e-23
5.0148358693455e-24
3.4294210767646e-25
1.4817705341437e-26
3.0426550286431e-28
2.966290358222e-37
2.3636457670009e-38
1.5999152780171e-39
9.111672005079e-41
4.3128055067968e-42
1.6701195662443e-43
5.1827815287772e-45
1.2528589402352e-46
2.264493319626e-48
2.8688639994091e-50
2.2646693242493e-52
8.3574554207154e-55
0
0
0
0
0
0
0
0
0
0
0
0
0
0
0
0
0
0
0
0
0
0
0
0
0
0
0
0
0
0
0
0
0
0
0
0
0
0
0
0
0
0
0
0
0
0
0
0
0
0
0
0
0
0
0
0
0
0
0
0
0
3.1854008335224e-20
-1.1336655307513e-18
-7.6696133981476e-18
-2.273546872821e-17
-5.6276575963764e-17
-7.5934474579522e-17
-2.2589323056302e-18
1.7347234759768e-16
0.25462125374242
0.73528892806089
0.96117666015152
0.95972655782743
0.73651681284554
0.29130331277175
5.1828588675734e-19
3.2038987246662e-19
1.3909684837743e-19
4.9766451946328e-20
1.4770887817995e-20
3.5175772206523e-21
6.5667817638918e-22
9.4082646531043e-23
9.9996076307959e-24
7.470402148214e-25
3.5055257652892e-26
7.7790546747087e-28
6.5553116004476e-37
5.5250652540881e-38
3.9422111759833e-39
2.3603087069585e-40
1.1717003304736e-41
4.7484185266331e-43
1.5390407740535e-44
3.878719249558e-46
7.2971732741165e-48
9.6094894954745e-50
7.8747330582801e-52
3.010972504159e-54
0
0
0
0
0
0
0
0
0
0
0
0
0
0
0
0
0
0
0
0
0
0
0
0
0
0
0
0
0
0
0
0
0
0
0
0
0
0
0
0
0
0
0
0
0
0
0
0
0
0
0
0
0
0
0
0
0
0
0
0
0
7.4470429183301e-31
7.476124146048e-20
-9.0482490932449e-19
-6.373621435016e-18
-1.7726982584883e-17
-3.0859748424299e-17
-2.9162513010389e-17
3.4694469519536e-17
0.44582426858321
0.99885622541708
0.99999999999966
0.99999999999894
0.9999999999984
0.99999999999834
0.99937899274118
0.49494474767267
4.2583018406261e-20
2.4852019520378e-20
1.0099199312288e-20
3.0482168140988e-21
6.8095113254737e-22
1.1188113003902e-22
1.327471328781e-23
1.0957976201049e-24
5.6348255811022e-26
1.3611302856716e-27
1.7131039016207e-32
5.212907447103e-33
1.3927511984944e-33
3.2728842867734e-34
6.7696333664713e-35
1.2321897596358e-35
1.9713975196888e-36
2.7667453283514e-37
3.3960465371525e-38
3.6313662288993e-39
3.365633808921e-40
2.6867297224742e-41
1.8328947212584e-42
1.0581963332204e-43
5.1070501036511e-45
2.0281711673314e-46
6.4917092902839e-48
1.6278071718761e-49
3.0689006114772e-51
4.0768944090268e-53
3.3911566613949e-55
1.3242467083307e-57
0
0
0
0
0
0
0
0
0
0
0
0
0
0
0
0
0
0
0
0
0
0
0
0
0
0
0
0
0
0
0
0
0
0
0
0
0
0
0
0
0
0
0
0
0
0
0
0
0
0
0
0
3.9344752947514e-30
1.1997599090111e-19
-1.7900974880656e-19
-2.2824636264518e-18
-7.2227004615465e-18
1.9981979935898e-18
-4.4763611019865e-17
0.26379433696168
0.99982701925307
0.99999999999991
0.99999999999946
0.99999999999844
0.99999999999735
0.99999999999708
0.99999999999814
0.99882442065786
0.29466053657054
2.6557201142175e-21
1.4654464905848e-21
4.5182414879017e-22
8.9382632490162e-23
1.2172431228596e-23
1.1331066925804e-24
6.4814608624454e-26
1.7213224317114e-27
1.7142031907538e-31
5.716221892128e-32
1.6668651399224e-32
4.2631447306964e-33
9.5795395957318e-34
1.8924793768001e-34
3.285968561612e-35
5.0086766375807e-36
6.6881140794347e-37
7.8001336360996e-38
7.9139506395017e-39
6.9500275094878e-40
5.2498901863966e-41
3.3845273444147e-42
1.8442347034386e-43
8.3908052050817e-45
3.1381067428659e-46
9.4506886378389e-48
2.228128479276e-49
3.9476459328184e-51
4.9271293504544e-53
3.850595084942e-55
1.4131617054476e-57
0
0
0
0
0
0
0
0
0
0
0
0
0
0
0
0
0
0
0
0
0
0
0
0
0
0
0
0
0
0
0
0
0
0
0
0
0
0
0
0
0
0
0
0
0
0
0
0
0
0
0
0
9.7714604758397e-30
1.4017447520858e-19
6.7276638869583e-19
2.2939519379823e-18
6.5283423884326e-19
-3.3673793979258e-19
-1.4571677198205e-16
0.74112721479674
1
0.99999999999991
0.99999999999946
0.99999999999848
0.99999999999738
0.99999999999703
0.9999999999978
0.99999999999924
0.76074344661115
2.8683456995932e-22
1.7019703930683e-22
4.6237993516884e-23
7.7392960649368e-24
8.3943695354647e-25
5.4691766283466e-26
1.6207806607431e-27
7.2268006434904e-31
2.6387596420886e-31
8.369343292765e-32
2.3160422393252e-32
5.6076676112053e-33
1.1897343811055e-33
2.2126509751628e-34
3.6048420122725e-35
5.1363541251332e-36
6.3837205113317e-37
6.8952407744026e-38
6.4416825221598e-39
5.1734693110395e-40
3.544739743337e-41
2.0523505846804e-42
9.9203062587069e-44
3.9412814032114e-45
1.260811413581e-46
3.1571898209911e-48
5.9402337716618e-50
7.8716853423902e-52
6.5299725420865e-54
2.5436910698058e-56
0
0
0
0
0
0
0
0
0
0
0
0
0
0
0
0
0
0
0
0
0
0
0
0
0
0
0
0
0
0
0
0
0
0
0
0
0
0
0
0
0
0
0
0
0
0
0
0
0
0
0
0
0
1.5266442128759e-29
1.1956032658112e-19
1.2510708535877e-18
5.5017424999882e-18
8.297133914414e-18
1.6939575868516e-17
0
0.95376512005145
1
0.99999999999993
0.9999999999996
0.99999999999889
0.99999999999812
0.99999999999787
0.99999999999837
0.99999999999933
0.9591181471726
2.6799585847954e-23
1.3844864502156e-23
3.2913659882497e-24
4.4361756361109e-25
3.4077934537323e-26
1.1530519171269e-27
1.7685893990627e-30
7.1055863141147e-31
2.4576693723394e-31
7.3658668881761e-32
1.9210423164347e-32
4.3708226403146e-33
8.6856365206447e-34
1.5073845475698e-34
2.281991876867e-35
3.0066425072975e-36
3.4360102440042e-37
3.390330591684e-38
2.8712568613679e-39
2.0714876779237e-40
1.2611110802835e-41
6.4010104432173e-43
2.6669154642917e-44
8.9349861087905e-46
2.3400639299366e-47
4.5984331051336e-49
6.3554209052917e-51
5.4913821514141e-53
2.22572968608e-55
0
0
0
0
0
0
0
0
0
0
0
0
0
0
0
0
0
0
0
0
0
0
0
0
0
0
0
0
0
0
0
0
0
0
0
0
0
0
0
0
0
0
0
0
0
0
0
0
0
0
0
0
0
0
1.6918836703647e-29
6.7920702613465e-20
1.2847409797554e-18
5.8617108607989e-18
1.1590881535649e-17
5.4135273958471e-18
2.7755575615629e-17
0.95019769407488
1
0.99999999999996
0.99999999999977
0.99999999999937
0.99999999999896
0.99999999999884
0.99999999999912
0.99999999999967
0.93396397822077
7.9531107795792e-05
8.4072441478741e-25
1.6119424644518e-25
1.5529952462043e-26
6.2138631292655e-28
2.8575044102789e-30
1.273527567064e-30
4.8303264960211e-31
1.5739782910748e-31
4.4334141604371e-32
1.0836018750533e-32
2.3030574339561e-33
4.2591379783705e-34
6.8491556485603e-35
9.5596028936227e-36
1.154504104172e-36
1.201210193359e-37
1.0705747476208e-38
8.1131028198483e-40
5.1790991048719e-41
2.7517872685319e-42
1.1982066772417e-43
4.1886617515594e-45
1.1428152520154e-46
2.3358071778332e-48
3.3525659489075e-50
3.004009193204e-52
1.261246822112e-54
0
0
0
0
0
0
0
0
0
0
0
0
0
0
0
0
0
0
0
0
0
0
0
0
0
0
0
0
0
0
0
0
0
0
0
0
0
0
0
0
0
0
0
0
0
0
0
0
0
0
0
0
0
0
0
1.4206598470709e-29
1.3707552248638e-20
8.936200969633e-19
3.9687456162571e-18
1.0065098736175e-17
8.970414584857e-18
-3.4694469519536e-17
0.7495665589214
1
0.99999999999998
0.99999999999989
0.99999999999971
0.99999999999954
0.9999999999995
0.99999999999965
0.99999999999992
0.72501398566311
9.643982077235e-26
3.6201088745797e-26
4.9772615185984e-27
2.5142318837605e-28
3.2534554805089e-30
1.6266227485582e-30
6.8186975724772e-31
2.4296792369209e-31
7.4236100697177e-32
1.9557765572211e-32
4.4574647007483e-33
8.80182803825e-34
1.5058078392283e-34
2.2288413788277e-35
2.8466210735592e-36
3.1243532874389e-37
2.9307003519226e-38
2.3325650831709e-39
1.5607364991736e-40
8.675604080631e-42
3.9449448642398e-43
1.4376343935755e-44
4.0819801517853e-46
8.6681740847751e-48
1.2905186960665e-49
1.1977034396639e-51
5.2026431412121e-54
0
0
0
0
0
0
0
0
0
0
0
0
0
0
0
0
0
0
0
0
0
0
0
0
0
0
0
0
0
0
0
0
0
0
0
0
0
0
0
0
0
0
0
0
0
0
0
0
0
0
0
0
0
0
0
0
9.4224000039951e-30
-1.9066410704407e-20
4.3447516229759e-19
1.8594508282062e-18
6.8944709201746e-18
1.1565847247806e-17
-1.9428893824276e-17
0.28497392229283
0.99862518614898
0.99999999999999
0.99999999999996
0.99999999999989
0.99999999999983
0.99999999999983
0.99999999999991
0.99966463148081
0.29220438203266
3.7535535829079e-27
1.0114793080902e-27
7.4859114109861e-29
2.7105320894645e-30
1.5425189347741e-30
7.2167854613159e-31
2.8322768625991e-31
9.4390561927476e-32
2.6922323500314e-32
6.6032777235481e-33
1.396296465089e-33
2.547403139699e-34
4.0065716136848e-35
5.4202970866809e-36
6.2839591503303e-37
6.2103510217607e-38
5.1955196836708e-39
3.6460642249913e-40
2.1212882320079e-41
1.0076210920543e-42
3.8286721192002e-44
1.1314354434275e-45
2.4962453959838e-47
3.8547899332009e-49
3.7051820570726e-51
1.6649871213584e-53
0
0
0
0
0
0
0
0
0
0
0
0
0
0
0
0
0
0
0
0
0
0
0
0
0
0
0
0
0
0
0
0
0
0
0
0
0
0
0
0
0
0
0
0
0
0
0
0
0
0
0
0
0
0
0
0
0
5.0788301125356e-30
-2.6600848523173e-20
1.3858877853898e-19
6.5697557658689e-19
3.987580835466e-18
5.4642649067372e-18
-8.0366477775824e-18
9.8879238130678e-17
0.48840621824596
0.99954301470872
0.99999999999999
0.99999999999997
0.99999999999995
0.99999999999997
0.99957727633886
0.54291626475724
0.00080493220944515
1.0039267291758e-28
1.6050471433589e-29
1.7440115508444e-30
1.1385915202658e-30
5.9762596431273e-31
2.5941140012293e-31
9.4644316350938e-32
2.9320121560061e-32
7.7613758351647e-33
1.7619414796817e-33
3.4356177579751e-34
5.7530464753808e-35
8.2583765590937e-36
1.0128316482187e-36
1.0559886352408e-37
9.2963863329684e-39
6.849089833392e-40
4.1742444341419e-41
2.0727408255282e-42
8.2169303509671e-44
2.5286327177189e-45
5.7989812459005e-47
9.292396244441e-49
9.2539903941917e-51
4.3033953544719e-53
0
0
0
0
0
0
0
0
0
0
0
0
0
0
0
0
0
0
0
0
0
0
0
0
0
0
0
0
0
0
0
0
0
0
0
0
0
0
0
0
0
0
0
0
0
0
0
0
0
0
0
0
0
0
0
0
0
0
2.2711899614385e-30
-1.9934309479382e-20
1.7322268401375e-20
2.1139626981281e-19
1.939451986635e-18
1.222081374945e-18
-2.9230452436849e-18
-1.5823537568631e-18
6.0715321659188e-18
0.27833320831521
0.74675987972776
0.96020899916628
0.94937705193537
0.74418841259765
0.31496904391527
0.0011365429157447
3.0464431144378e-27
1.2204251433297e-27
2.0968200255608e-28
1.4642916847928e-29
4.291890678855e-31
2.0242327035588e-31
7.9676285966572e-32
2.6590543899119e-32
7.5622243839788e-33
1.8385527813598e-33
3.8270261347875e-34
6.8198503511324e-35
1.0387649351814e-35
1.348061178241e-36
1.4833970253618e-37
1.3749242008095e-38
1.0640517751717e-39
6.7971114631739e-41
3.5302543182787e-42
1.4609118529355e-43
4.6841292596138e-45
1.1172051539956e-46
1.8586506277508e-48
1.91873414112e-50
9.2383680041508e-53
0
0
0
0
0
0
0
0
0
0
0
0
0
0
0
0
0
0
0
0
0
0
0
0
0
0
0
0
0
0
0
0
0
0
0
0
0
0
0
0
0
0
0
0
0
0
0
0
0
0
0
0
0
0
0
0
0
0
0
8.5577744671978e-31
-1.0812182617129e-20
-1.0242226171669e-20
7.9421556494314e-20
7.8763449050994e-19
2.7787151110101e-19
-7.7908702339385e-19
-9.1385643176669e-20
-4.5684117519751e-18
-1.6308862464407e-18
1.5765620106458e-19
3.3651388554617e-20
0.0034528900498956
2.4894614194188e-22
7.8407901978968e-24
7.010472958468e-25
4.9743271455231e-26
2.7276734390962e-27
1.0119327922468e-28
3.3463232292709e-31
1.6456458060289e-31
6.514480992063e-32
2.2376896903854e-32
6.6365616755367e-33
1.6943093993207e-33
3.7153958928739e-34
6.9827403327601e-35
1.1215639723733e-35
1.5335923240638e-36
1.7758470141706e-37
1.7295038331258e-38
1.4040644966789e-39
9.392633838566e-41
5.0998131502445e-42
2.2024493331789e-43
7.357034212753e-45
1.8250459452908e-46
3.1528934351552e-48
3.3749358400753e-50
1.6830325339174e-52
0
0
0
0
0
0
0
0
0
0
0
0
0
0
0
0
0
0
0
0
0
0
0
0
0
0
0
0
0
0
0
0
0
0
0
0
0
0
0
0
0
0
0
0
0
0
0
0
0
0
0
0
0
0
0
0
0
0
0
0
2.7496641022478e-31
-4.5988630559446e-21
-8.4489495661255e-21
3.3332455530165e-20
2.6863813418963e-19
1.5997270578481e-19
8.0521584722606e-20
4.9329501440941e-19
-4.7195145750075e-19
2.8153038463768e-19
7.6754114122789e-20
1.1369133620581e-20
8.2047637430041e-22
2.9771755028205e-23
2.909991387088e-24
2.1553938699381e-25
1.107951355368e-26
3.4009370355005e-28
3.0808591711424e-31
1.7067219983515e-31
6.2783175367746e-32
2.0647277383088e-32
6.0186216705841e-33
1.5411596779226e-33
3.4392458605057e-34
6.6433149587922e-35
1.1038486149717e-35
1.5678373027286e-36
1.8903585566025e-37
1.9192512583383e-38
1.624913479865e-39
1.1333706666728e-40
6.4123160283192e-42
2.8831074121422e-43
1.001602794012e-44
2.5811005462875e-46
4.6266201111161e-48
5.132810289284e-50
2.6504576447175e-52
0
0
0
0
0
0
0
0
0
0
0
0
0
0
0
0
0
0
0
0
0
0
0
0
0
0
0
0
0
0
0
0
0
0
0
0
0
0
0
0
0
0
0
0
0
0
0
0
0
0
0
0
0
0
0
0
0
0
0
0
0
7.6048712526441e-32
-1.589499030437e-21
-3.6418683974393e-21
1.2448771589494e-20
7.7346445210763e-20
7.7055357612216e-20
1.3521382229579e-19
2.4791620115489e-19
1.8889439106921e-19
7.0022571560901e-20
1.3215413229808e-20
1.1707729948223e-21
5.1364204958638e-23
5.5794480195122e-24
4.4982637564621e-25
2.4167430051535e-26
7.0869904678411e-28
2.4246927660538e-31
1.9889527304278e-31
7.008053729547e-32
2.2001030128645e-32
6.1534015138487e-33
1.5276078471016e-33
3.3461862663521e-34
6.4219035126102e-35
1.0716026873433e-35
1.5421060954749e-36
1.8969909355587e-37
1.975278164592e-38
1.7215859457287e-39
1.239301683558e-40
7.2480493926171e-42
3.3717220978099e-43
1.2123485429363e-44
3.2335161080152e-46
5.9974028074828e-48
6.8820933403171e-50
3.674366718481e-52
0
0
0
0
0
0
0
0
0
0
0
0
0
0
0
0
0
0
0
0
0
0
0
0
0
0
0
0
0
0
0
0
0
0
0
0
0
0
0
0
0
0
0
0
0
0
0
0
0
0
0
0
0
0
0
0
0
0
0
0
0
0
1.8240559140393e-32
-4.55234042543e-22
-1.1428037234793e-21
3.7099292668508e-21
1.8676499274636e-20
2.3708982130753e-20
4.5888686878561e-20
5.8551392272964e-20
3.2353907892836e-20
8.2795191478605e-21
9.4627351003471e-22
5.3256979210567e-23
6.5131371839121e-24
5.8177675448838e-25
3.3953719786001e-26
1.0211395554204e-27
7.303632664549e-32
2.0795252242597e-31
7.4727814308244e-32
2.3581376811377e-32
6.5546936469544e-33
1.6057944339922e-33
3.4616570126679e-34
6.5443669267423e-35
1.0796838167034e-35
1.5443639526952e-36
1.8997859421911e-37
1.9902094877392e-38
1.7548263038649e-39
1.2840388881222e-40
7.6629579728475e-42
3.648496084208e-43
1.3457762291846e-44
3.6884706781437e-46
7.0388899347e-48
8.3179594920994e-50
4.5757640566592e-52
0
0
0
0
0
0
0
0
0
0
0
0
0
0
0
0
0
0
0
0
0
0
0
0
0
0
0
0
0
0
0
0
0
0
0
0
0
0
0
0
0
0
0
0
0
0
0
0
0
0
0
0
0
0
0
0
0
0
0
0
0
0
0
3.8167704254564e-33
-1.0932207255958e-22
-2.8323428063408e-22
8.6253910436823e-22
3.7189942728877e-21
5.0016524785228e-21
8.6399915721751e-21
7.9412897406003e-21
3.0151753939261e-21
4.7674310274828e-22
3.6919370477697e-23
5.1539096781118e-24
5.1723305548302e-25
3.3491880453661e-26
1.076894074415e-27
-1.3822210164383e-31
1.7788429467199e-31
6.7585526887079e-32
2.2290547730891e-32
6.4026783000436e-33
1.6040266998015e-33
3.5042042733318e-34
6.6653924956973e-35
1.1007774411828e-35
1.5716770493337e-36
1.9285019582441e-37
2.017370605706e-38
1.7804489291714e-39
1.3081544368134e-40
7.8664782077522e-42
3.7871656678344e-43
1.4171512405903e-44
3.9522032978939e-46
7.6951492114535e-48
9.2992900348599e-50
5.240026581478e-52
0
0
0
0
0
0
0
0
0
0
0
0
0
0
0
0
0
0
0
0
0
0
0
0
0
0
0
0
0
0
0
0
0
0
0
0
0
0
0
0
0
0
0
0
0
0
0
0
0
0
0
0
0
0
0
0
0
0
0
0
0
0
0
0
7.000015327525e-34
-2.2172903400872e-23
-5.7285376934887e-23
1.5622208726068e-22
5.9861462114862e-22
7.6733292391436e-22
1.0378798566886e-21
6.4886006349851e-22
1.5603371063502e-22
1.7948073324353e-23
2.9075152949612e-24
3.3269160554676e-25
2.4285054874526e-26
8.5826945651545e-28
-2.7469214561868e-31
1.2210799108103e-31
5.0004067478225e-32
1.7608764561623e-32
5.3515036115385e-33
1.4061221670463e-33
3.1948367681157e-34
6.2700556424984e-35
1.0605342181379e-35
1.540718250219e-36
1.9131732644706e-37
2.0170500190736e-38
1.789399674312e-39
1.3199020426255e-40
7.9682089457349e-42
3.8549569539553e-43
1.452143416472e-44
4.086390243725e-46
8.0503777706291e-48
9.8713126644446e-50
5.6566497679262e-52
0
0
0
0
0
0
0
0
0
0
0
0
0
0
0
0
0
0
0
0
0
0
0
0
0
0
0
0
0
0
0
0
0
0
0
0
0
0
0
0
0
0
0
0
0
0
0
0
0
0
0
0
0
0
0
0
0
0
0
0
0
0
0
0
0
1.129307886816e-34
-3.8136022279045e-24
-9.6026721298572e-24
2.1953555748984e-23
7.6420064637553e-23
8.8543397742508e-23
8.4434660793642e-23
3.3936261925899e-23
6.213429876169e-24
1.193545424543e-24
1.5854533948307e-25
1.3255685975901e-26
5.260430055223e-28
-2.8490927163173e-31
6.7198426733694e-32
3.0067254553785e-32
1.146075492955e-32
3.7384938276155e-33
1.0462401022263e-33
2.5137333391993e-34
5.181107704832e-35
9.1425170108015e-36
1.3767212003416e-36
1.7610411251584e-37
1.9016142830345e-38
1.7189839809858e-39
1.2864142812051e-40
7.8523161522775e-42
3.831971492017e-43
1.4541621727474e-44
4.1215514804262e-46
8.1852905348758e-48
1.0134478270634e-49
5.8728341829942e-52
0
0
0
0
0
0
0
0
0
0
0
0
0
0
0
0
0
0
0
0
0
0
0
0
0
0
0
0
0
0
0
0
0
0
0
0
0
0
0
0
0
0
0
0
0
0
0
0
0
0
0
0
0
0
0
0
0
0
0
0
0
0
0
0
0
0
1.606888660296e-35
-5.5705524322426e-25
-1.3437399058211e-24
2.354579072242e-24
7.5931082862177e-24
7.7826474464109e-24
5.0326372044787e-24
1.5159970170311e-24
3.5609354544897e-25
5.6256879985664e-26
5.4933953012928e-27
2.497433737026e-28
-2.0919476038165e-31
2.965447253395e-32
1.4686748800321e-32
6.1304536775086e-33
2.1701296042459e-33
6.539238149387e-34
1.6800267824879e-34
3.6794926302934e-35
6.8585780654267e-36
1.0847913547524e-36
1.4493923133285e-37
1.6258776886041e-38
1.5187519049532e-39
1.1685643355263e-40
7.2994760173033e-42
3.6301343356679e-43
1.3989322225142e-44
4.0159376465453e-46
8.0653479638794e-48
1.0092706389826e-49
5.9091109824007e-52
0
0
0
0
0
0
0
0
0
0
0
0
0
0
0
0
0
0
0
0
0
0
0
0
0
0
0
0
0
0
0
0
0
0
0
0
0
0
0
0
0
0
0
0
0
0
0
0
0
0
0
0
0
0
0
0
0
0
0
0
0
0
0
0
0
0
0
2.0201665507255e-36
-6.905144351214e-26
-1.572833724505e-25
1.8464024255415e-25
5.7374203852793e-25
5.176776449503e-25
2.504944159141e-25
7.547620714275e-26
1.4685825842889e-26
1.7206964502934e-27
9.1687845552761e-29
-1.1770703182327e-31
1.0461353847392e-32
5.8184904795082e-33
2.6921312266588e-33
1.0451859677819e-33
3.4237859437762e-34
9.4912676437244e-35
2.2285021731884e-35
4.427550456737e-36
7.4244130939519e-37
1.0463832647476e-37
1.2321276885772e-38
1.2023679017951e-39
9.6193040067184e-41
6.2190945970937e-42
3.1869553021373e-43
1.2602438005499e-44
3.6984863876689e-46
7.5700208728807e-48
9.6315910526395e-50
5.7214853194818e-52
0
0
0
0
0
0
0
0
0
0
0
0
0
0
0
0
0
0
0
0
0
0
0
0
0
0
0
0
0
0
0
0
0
0
0
0
0
0
0
0
0
0
0
0
0
0
0
0
0
0
0
0
0
0
0
0
0
0
0
0
0
0
0
0
0
0
0
0
2.2461091587127e-37
-7.2415911641292e-27
-1.5365647545592e-26
9.3745821382137e-27
3.1811881197654e-26
2.553134923318e-26
1.0766861738124e-26
2.7290858495413e-27
3.9970330045171e-28
2.5735794514344e-29
-5.2410172481447e-32
2.926338329504e-33
1.8601721445224e-33
9.675585843549e-34
4.1682493697314e-34
1.499260532213e-34
4.5242867795966e-35
1.1480116946887e-35
2.4496213499556e-36
4.3874220815508e-37
6.5716946562025e-38
8.1856994082465e-39
8.4124416425579e-40
7.057452869966e-41
4.7646390048673e-42
2.5391671661662e-43
1.0400107166498e-44
3.149217449677e-46
6.6271864288865e-48
8.6419712160883e-50
5.24536046908e-52
0
0
0
0
0
0
0
0
0
0
0
0
0
0
0
0
0
0
0
0
0
0
0
0
0
0
0
0
0
0
0
0
0
0
0
0
0
0
0
0
0
0
0
0
0
0
0
0
0
0
0
0
0
0
0
0
0
0
0
0
0
0
0
0
0
0
0
0
0
2.2090235315368e-38
-6.3896605883014e-28
-1.2450049847258e-27
1.5078611681435e-28
1.212039107494e-27
9.099934442773e-28
3.3625813477771e-28
6.6089392798247e-29
5.3869610689562e-30
-1.872776904468e-32
6.3962638019731e-34
4.7523236029396e-34
2.8275102727238e-34
1.3705254968084e-34
5.474952971231e-35
1.815919640909e-35
5.0214696261269e-36
1.1593768027791e-36
2.2331948896331e-37
3.5781841964687e-38
4.7448384083831e-39
5.1683208832996e-40
4.5765637610856e-41
3.2484294718003e-42
1.8131492004961e-43
7.7493955436188e-45
2.439770167675e-46
5.3196048843409e-48
7.1636333620778e-50
4.4754506524601e-52
0
0
0
0
0
0
0
0
0
0
0
0
0
0
0
0
0
0
0
0
0
0
0
0
0
0
0
0
0
0
0
0
0
0
0
0
0
0
0
0
0
0
0
0
0
0
0
0
0
0
0
0
0
0
0
0
0
0
0
0
0
0
0
0
0
0
0
0
0
0
1.9207589065183e-39
-4.7034398075152e-29
-8.273913449501e-29
-2.000909586387e-29
2.7171129749251e-29
2.2785897988318e-29
7.1139293015975e-30
7.9990258278351e-31
-5.391961690958e-33
1.0666982795233e-34
9.5476043341018e-35
6.6447559222808e-35
3.6869327734911e-35
1.6584561775283e-35
6.1143922003004e-36
1.8600410959205e-36
4.6845935040812e-37
9.7736338723929e-38
1.6859737016684e-38
2.3943055466933e-39
2.7799635710513e-40
2.6128207676298e-41
1.9607100468021e-42
1.1527515405329e-43
5.17127028339e-45
1.7030246287493e-46
3.8712650111841e-48
5.4176585144604e-50
3.5061392092716e-52
0
0
0
0
0
0
0
0
0
0
0
0
0
0
0
0
0
0
0
0
0
0
0
0
0
0
0
0
0
0
0
0
0
0
0
0
0
0
0
0
0
0
0
0
0
0
0
0
0
0
0
0
0
0
0
0
0
0
0
0
0
0
0
0
0
0
0
0
0
0
0
1.4748345163698e-40
-2.8530457420883e-30
-4.432677632571e-30
-1.9865847423986e-30
1.5241890039469e-31
3.7772845956673e-31
7.499693619915e-32
-1.2462798389459e-33
1.3064927458776e-35
1.4711165850248e-35
1.2343901696361e-35
8.0177628049002e-36
4.1316165364404e-36
1.7165256952995e-36
5.8090356587342e-37
1.6108418942484e-37
3.6691493254212e-38
6.8615321514239e-39
1.0500164039614e-39
1.3068615535776e-40
1.3105806574192e-41
1.0450146771114e-42
6.5034622268236e-44
3.0772620761343e-45
1.0653286768648e-46
2.5374841054601e-48
3.7092436267973e-50
2.4997167462611e-52
0
0
0
0
0
0
0
0
0
0
0
0
0
0
0
0
0
0
0
0
0
0
0
0
0
0
0
0
0
0
0
0
0
0
0
0
0
0
0
0
0
0
0
0
0
0
0
0
0
0
0
0
0
0
0
0
0
0
0
0
0
0
0
0
0
0
0
0
0
0
0
0
9.9824843396822e-42
-1.4013135858453e-31
-1.8654091970435e-31
-9.2766961432967e-32
-8.742877788712e-33
2.7243387928666e-33
-2.2866293709264e-34
1.1026190158652e-36
1.6715402417315e-36
1.7661294786482e-36
1.3842376871663e-36
8.3567027677379e-37
3.9804364135785e-37
1.519170528125e-37
4.6901293140038e-38
1.1771762577302e-38
2.4052836166677e-39
3.9933584011401e-40
5.3598492745194e-41
5.7663488860182e-42
4.909963357452e-43
3.249631182263e-44
1.6291534885637e-45
5.9549519499548e-47
1.4926689722507e-48
2.2889589342821e-50
1.6133256298571e-52
0
0
0
0
0
0
0
0
0
0
0
0
0
0
0
0
0
0
0
0
0
0
0
0
0
0
0
0
0
0
0
0
0
0
0
0
0
0
0
0
0
0
0
0
0
0
0
0
0
0
0
0
0
0
0
0
0
0
0
0
0
0
0
0
0
0
0
0
0
0
0
0
0
5.9417819446153e-43
-5.4332215868315e-33
-5.9277140332186e-33
-2.5023118464584e-33
-2.5669091220461e-34
-3.2618559046505e-35
5.6891582425407e-38
1.3125011587748e-37
1.8694559788876e-37
1.8469834328166e-37
1.3467125089787e-37
7.5213847408393e-38
3.2937851540385e-38
1.1477426523793e-38
3.2097526306827e-39
7.2322072209824e-40
1.3128943481247e-40
1.9131429966765e-41
2.2211374728794e-42
2.0303187247846e-43
1.4359515234339e-44
7.6614002963874e-46
2.9692177834692e-47
7.8638102372459e-49
1.2699417685973e-50
9.3973559493137e-53
0
0
0
0
0
0
0
0
0
0
0
0
0
0
0
0
0
0
0
0
0
0
0
0
0
0
0
0
0
0
0
0
0
0
0
0
0
0
0
0
0
0
0
0
0
0
0
0
0
0
0
0
0
0
0
0
0
0
0
0
0
0
0
0
0
0
0
0
0
0
0
0
0
0
3.1005131088539e-44
-1.6004192376757e-34
-1.3343139303053e-34
-3.7673506727196e-35
-3.4936032116187e-36
1.3379723898887e-39
6.3098830080934e-39
1.3703886460842e-38
1.8278574080365e-38
1.6820171265267e-38
1.1357537175983e-38
5.8372776637811e-39
2.3359177473567e-39
7.3792588846363e-40
1.8540495222284e-40
3.7142812375525e-41
5.9221718230092e-42
7.4696139475219e-43
7.3729347733341e-44
5.6013445650749e-45
3.1954787211823e-46
1.3187132897054e-47
3.7049018372733e-49
6.3245638586266e-51
4.9311375267385e-53
0
0
0
0
0
0
0
0
0
0
0
0
0
0
0
0
0
0
0
0
0
0
0
0
0
0
0
0
0
0
0
0
0
0
0
0
0
0
0
0
0
0
0
0
0
0
0
0
0
0
0
0
0
0
0
0
0
0
0
0
0
0
0
0
0
0
0
0
0
0
0
0
0
0
0
1.4127722083631e-45
-3.3654272074651e-36
-1.8914107758455e-36
-2.646669097786e-37
2.7598191897626e-46
1.3816799575016e-40
6.1543609755506e-40
1.2545284006415e-39
1.5611905300463e-39
1.3322000941093e-39
8.2874010989508e-40
3.8960946802485e-40
1.4147485215526e-40
4.0186667011387e-41
8.9842808971923e-42
1.5819664222003e-42
2.1847077107777e-43
2.3442039222983e-44
1.9242152511025e-45
1.1797958521512e-46
5.2083757936081e-48
1.5587566569019e-49
2.8235872085339e-51
2.3279054024456e-53
0
0
0
0
0
0
0
0
0
0
0
0
0
0
0
0
0
0
0
0
0
0
0
0
0
0
0
0
0
0
0
0
0
0
0
0
0
0
0
0
0
0
0
0
0
0
0
0
0
0
0
0
0
0
0
0
0
0
0
0
0
0
0
0
0
0
0
0
0
0
0
0
0
0
0
0
5.5928269864904e-47
-4.5006191628142e-38
-1.2657982622896e-38
2.5363028478605e-47
6.7640675489725e-48
1.2565486618115e-41
5.2740855683055e-41
1.0057397335002e-40
1.1628765503539e-40
9.1559089785184e-41
5.2165036382443e-41
2.2277323696781e-41
7.28076948384e-42
1.8418235251436e-42
3.6220094701349e-43
5.5279256611798e-44
6.4986751118775e-45
5.8022881294528e-46
3.845807901071e-47
1.8255135043338e-48
5.8463930948642e-50
1.1283937202815e-51
9.8740933981504e-54
0
0
0
0
0
0
0
0
0
0
0
0
0
0
0
0
0
0
0
0
0
0
0
0
0
0
0
0
0
0
0
0
0
0
0
0
0
0
0
0
0
0
0
0
0
0
0
0
0
0
0
0
0
0
0
0
0
0
0
0
0
0
0
0
0
0
0
0
0
0
0
0
0
0
0
0
0
1.9111326969344e-48
-2.8768142196229e-40
1.663293183776e-48
5.9421126096559e-49
1.3551956171291e-49
1.0048851304396e-42
3.9646128048959e-42
7.0466211029483e-42
7.5345578641408e-42
5.4424881687913e-42
2.8206384807879e-42
1.0854267043579e-42
3.1624240464769e-43
7.0432950581546e-44
1.2014837862619e-44
1.562076331772e-45
1.529005531948e-46
1.1029353724911e-47
5.6620726193319e-49
1.9503792795004e-50
4.0290600298751e-52
3.757272672795e-54
0
0
0
0
0
0
0
0
0
0
0
0
0
0
0
0
0
0
0
0
0
0
0
0
0
0
0
0
0
0
0
0
0
0
0
0
0
0
0
0
0
0
0
0
0
0
0
0
0
0
0
0
0
0
0
0
0
0
0
0
0
0
0
0
0
0
0
0
0
0
0
0
0
0
0
0
0
0
5.5907437166154e-50
6.9405632093193e-50
3.7338063060055e-50
1.1402359137199e-50
2.1740812273404e-51
7.0507854302361e-44
2.6078968053504e-43
4.3024309197658e-43
4.2313901145916e-43
2.7856649349689e-43
1.3028845965654e-43
4.4751236202643e-44
1.1491245741744e-44
2.2220687994469e-45
3.2315766670171e-46
3.5005950159129e-47
2.7699376984962e-48
1.5482872623795e-49
5.7698610421633e-51
1.2822504135018e-52
1.2800548828791e-54
0
0
0
0
0
0
0
0
0
0
0
0
0
0
0
0
0
0
0
0
0
0
0
0
0
0
0
0
0
0
0
0
0
0
0
0
0
0
0
0
0
0
0
0
0
0
0
0
0
0
0
0
0
0
0
0
0
0
0
0
0
0
0
0
0
0
0
0
0
0
0
0
0
0
0
0
0
0
0
1.3857336723751e-51
1.4959377511141e-51
6.8770463179401e-52
1.7551122517639e-52
2.7147261474412e-53
4.3271418966562e-45
1.4962259317549e-44
2.2804556740909e-44
2.0501402829965e-44
1.2206470416681e-44
5.1042387724538e-45
1.5472079389248e-45
3.4532014048663e-46
5.6980854450533e-47
6.9098684718171e-48
6.0548438251608e-49
3.7144563678355e-50