/*--------------------------------*- C++ -*----------------------------------*\
  =========                 |
  \\      /  F ield         | OpenFOAM: The Open Source CFD Toolbox
   \\    /   O peration     | Website:  https://openfoam.org
    \\  /    A nd           | Version:  7
     \\/     M anipulation  |
\*---------------------------------------------------------------------------*/
FoamFile
{
    version     2.0;
    format      ascii;
    class       volScalarField;
    location    "2.2";
    object      alpha.water;
}
// * * * * * * * * * * * * * * * * * * * * * * * * * * * * * * * * * * * * * //

dimensions      [0 0 0 0 0 0 0];

internalField   nonuniform List<scalar> 
6000
(
0
0
0
0
0
0
0
0
0
0
0
0
0
0
0
0
0
0
0
0
0
0
0
0
0
0
0
0
0
0
0
0
0
0
0
0
0
0
0
0
0
0
0
0
0
0
0
0
0
0
0
0
0
0
0
0
0
0
0
0
0
0
0
0
0
0
0
0
0
0
0
0
0
0
0
0
0
0
0
0
0
0
0
0
0
0
0
0
0
0
0
0
0
0
0
0
0
0
0
0
0
0
0
0
0
0
0
0
0
0
0
0
0
0
0
0
0
0
0
0
0
0
0
0
0
0
0
0
0
0
0
0
0
0
0
0
0
0
0
0
0
0
0
0
0
0
0
0
0
0
0
0
0
0
0
0
0
0
0
0
0
0
0
0
0
0
0
0
0
0
0
0
0
0
0
0
0
0
0
0
0
0
0
0
0
0
0
0
0
0
0
0
0
0
0
0
0
0
0
0
0
0
0
0
0
0
0
0
0
0
0
0
0
0
0
0
0
0
0
0
0
0
0
0
0
0
0
0
0
0
0
0
0
0
0
0
0
0
0
0
0
0
0
0
0
0
0
0
0
0
0
0
0
0
0
0
0
0
0
0
0
0
0
0
0
0
0
0
0
0
0
0
0
0
0
0
0
0
0
0
0
0
0
0
0
0
0
0
0
0
0
0
0
0
0
0
0
0
0
0
0
0
0
0
0
0
0
0
0
0
0
0
0
0
0
0
0
0
0
0
0
0
0
0
0
0
0
0
0
0
0
0
0
0
0
0
0
0
0
0
0
0
0
0
0
0
0
0
0
0
0
0
0
0
0
0
0
0
0
0
0
0
0
0
0
0
0
0
0
0
0
0
0
0
0
0
0
0
0
0
0
0
0
0
0
0
0
0
0
0
0
0
0
0
0
0
0
0
0
0
0
0
0
0
0
0
0
0
0
5.2591370559076e-62
3.7202175084885e-60
1.3068714263478e-58
3.0449954539208e-57
5.2905363498667e-56
7.3117496287192e-55
8.3719861279273e-54
8.1684516245499e-53
6.9325564242578e-52
5.1989663831495e-51
3.488016483716e-50
2.1146043571752e-49
1.1680326444877e-48
5.9192777953588e-48
2.768402735847e-47
1.2009888961256e-46
4.8541968554985e-46
1.8350453840255e-45
6.5105113945805e-45
2.1744415606981e-44
6.8553875491612e-44
2.0452083198018e-43
5.7867221286044e-43
1.5559584100077e-42
3.983248788138e-42
9.7249588290247e-42
2.2679127814993e-41
5.059156530142e-41
1.0809877273462e-40
2.2150835308424e-40
4.3579703060292e-40
8.2407589722127e-40
1.499243822154e-39
2.6266632511317e-39
4.4355096164764e-39
7.2251330384174e-39
1.1361781058217e-38
1.7260786282913e-38
2.5350439223079e-38
3.6016517003733e-38
4.9530689056482e-38
6.5971162147778e-38
8.5148800803697e-38
1.0655463987339e-37
1.2934488618072e-37
1.5237428665082e-37
1.7428187749312e-37
1.9362161942131e-37
2.090213243588e-37
2.1934523620262e-37
2.2383309352756e-37
2.2219242126438e-37
2.1462788546634e-37
2.0180490406274e-37
1.8475493390189e-37
1.6474161640642e-37
1.4311073022718e-37
1.2114779202912e-37
9.9963434974315e-38
8.0417788554412e-38
6.3087977244464e-38
4.8274541962811e-38
3.6037636552397e-38
2.6251011535119e-38
1.8662455480328e-38
1.2950957794994e-38
8.7744309691746e-39
5.8048398794747e-39
3.7504422517598e-39
2.366785928884e-39
1.4590831765969e-39
8.7882581968618e-40
5.1722720653998e-40
2.9748615901221e-40
1.6722743299889e-40
9.1885961753567e-41
4.935539454242e-41
2.5918161287374e-41
1.3307471537505e-41
6.6810365539703e-42
3.2800609291381e-42
1.5748529700109e-42
7.395135797534e-43
3.3964557017719e-43
1.5258179264436e-43
6.7049810129487e-44
2.8822346962908e-44
1.2120337235499e-44
4.9861807343189e-45
2.0067886916004e-45
1.2750637736945e-45
0
0
0
0
0
0
0
-4.8593032837832e-52
-3.2008402256097e-50
-1.046562226885e-48
-2.2641661679952e-47
-3.6451830368228e-46
-4.6566863184587e-45
-4.9150982143624e-44
-4.406638381625e-43
-3.4237546651297e-42
-2.3401728949889e-41
-1.4235018427546e-40
-7.7753996478274e-40
-3.8400903636626e-39
-1.7236641083544e-38
-7.0562984980145e-38
-2.6391707355875e-37
-9.0141628599917e-37
-2.801341053869e-36
-7.8492064224995e-36
-1.9429163105044e-35
-4.0431784256509e-35
-6.0119269117632e-35
-3.2751396779342e-36
4.285349286547e-34
2.1889747915465e-33
7.9448948702416e-33
2.4444795270966e-32
6.7408223800067e-32
1.708772600026e-31
4.0382091876288e-31
8.9749852040904e-31
1.8871957920849e-30
3.7707740621642e-30
7.1832927766588e-30
1.3081310694686e-29
2.2822562294595e-29
3.8217864631579e-29
6.1524921025765e-29
9.5351671342207e-29
1.4244350659616e-28
2.0534609664695e-28
2.8596294473955e-28
3.8505947355231e-28
5.0179542143002e-28
6.3338492487345e-28
7.7498056569414e-28
9.1985006689588e-28
1.0598651181017e-27
1.1862607252722e-27
1.2905648600846e-27
1.365556995263e-27
1.4061014436716e-27
1.4097210849806e-27
1.3768244678871e-27
1.3105628918182e-27
1.2163589379103e-27
1.1011998878456e-27
9.7281881568366e-28
8.3888950079498e-28
7.0634162801879e-28
5.8086752955188e-28
4.66650481739e-28
3.6630621009201e-28
2.81000228691e-28
2.1068708712261e-28
1.5441348057933e-28
1.1063309484122e-28
7.749336163079e-29
5.3069174977037e-29
3.55328773499e-29
2.3261334311296e-29
1.4888686138919e-29
9.3173679078231e-30
5.7008557667292e-30
3.410276623004e-30
1.99449683447e-30
1.1404123009878e-30
6.3747832979822e-31
3.4836461686099e-31
1.8610495150807e-31
9.7191335268176e-32
4.9617361915647e-32
2.4760955066441e-32
1.2078697714391e-32
5.7594823677215e-33
2.6844119331174e-33
1.2229508101623e-33
5.4457106714613e-34
2.3701576791969e-34
1.0082493502459e-34
4.1919593614114e-35
1.7033905106026e-35
1.0960646313223e-35
0
0
0
0
0
0
-2.1556255057318e-50
-1.4787579701351e-48
-5.0381309844417e-47
-1.1366155853221e-45
-1.9101375406337e-44
-2.5505371221431e-43
-2.8185211279408e-42
-2.6512039796391e-41
-2.1668259622234e-40
-1.5630465231451e-39
-1.0075032615342e-38
-5.8610155987755e-38
-3.1024934720726e-37
-1.5046558474272e-36
-6.7247087603071e-36
-2.7834200902314e-35
-1.0715620221448e-34
-3.8513223598582e-34
-1.2964997042302e-33
-4.0996423965764e-33
-1.220729213637e-32
-3.4304123462958e-32
-9.115034869748e-32
-2.2938907705904e-31
-5.4751656688449e-31
-1.2408810005185e-30
-2.6727300068405e-30
-5.4743172568458e-30
-1.0665128467057e-29
-1.9760319165822e-29
-3.4794190550183e-29
-5.8138823769468e-29
-9.1947583246671e-29
-1.3702692824608e-28
-1.909688443798e-28
-2.4549298880309e-28
-2.8317079295151e-28
-2.7401917502864e-28
-1.727984951579e-28
8.1879596447219e-29
5.6546732024174e-28
1.3615176603931e-27
2.5515836531722e-27
4.2016743261053e-27
6.3470352041023e-27
8.9779281930074e-27
1.2029520052986e-26
1.5378726237916e-26
1.8849844245356e-26
2.2229208644222e-26
2.5287258694228e-26
2.7804777600503e-26
2.9599058532605e-26
3.0545641152005e-26
3.0592076647053e-26
2.9761714707971e-26
2.8147385178308e-26
2.589663138583e-26
2.3191460916396e-26
2.0226182771408e-26
1.7186757873018e-26
1.4234337390056e-26
1.1494549633447e-26
9.0529061781752e-27
6.9556784087584e-27
5.2149067087649e-27
3.8159014642863e-27
2.7256409362868e-27
1.9007675737264e-27
1.2943094022376e-27
8.6069372266263e-28
5.5899394453405e-28
3.5461294333729e-28
2.1974925399044e-28
1.3303250446632e-28
7.8681784091104e-29
4.5467600055383e-29
2.5672238149631e-29
1.416378124534e-29
7.6360022863998e-30
4.0229043514846e-30
2.0711600508891e-30
1.0420763181963e-30
5.1239766202814e-31
2.4623206821621e-31
1.1564273983769e-31
5.3080276108927e-32
2.3811793118868e-32
1.043990529905e-32
4.473487728051e-33
1.8734372110199e-33
7.6678115714847e-34
3.0671675695602e-34
1.9244530182669e-34
0
0
0
0
0
7.1562865765674e-52
-6.8232475412239e-49
-4.7927196961709e-47
-1.6333735028336e-45
-3.6662349046883e-44
-6.1184553089134e-43
-8.1070652021761e-42
-8.8881354812477e-41
-8.2947673754619e-40
-6.7272346504905e-39
-4.8168015058506e-38
-3.0829192201424e-37
-1.7815501985491e-36
-9.3723832019383e-36
-4.5197911498277e-35
-2.0097849974158e-34
-8.281900354621e-34
-3.1765426468156e-33
-1.1383604713302e-32
-3.8243931521049e-32
-1.2080703420314e-31
-3.5976166349064e-31
-1.0124009281834e-30
-2.6978549547359e-30
-6.8207173058135e-30
-1.638765981502e-29
-3.7473959871042e-29
-8.1666457176799e-29
-1.6981012361024e-28
-3.3722752302121e-28
-6.4015357909843e-28
-1.1623408335171e-27
-2.0196400188264e-27
-3.359019490467e-27
-5.34736867084e-27
-8.1451833343171e-27
-1.1861603281913e-26
-1.6490838453254e-26
-2.1835805308886e-26
-2.7431954723919e-26
-3.2490978991751e-26
-3.5887809690767e-26
-3.6212531596217e-26
-3.1899995063026e-26
-2.1434378481894e-26
-3.6064784797112e-27
2.2217119802547e-26
5.5865964081372e-26
9.6232581924632e-26
1.4127556240821e-25
1.8817584966793e-25
2.3363229266297e-25
2.7425248383748e-25
3.0697351338223e-25
3.2944002488763e-25
3.4027567301474e-25
3.3920631828979e-25
3.2702322712817e-25
3.0540477514698e-25
2.7663882656536e-25
2.4330054603755e-25
2.0794057932733e-25
1.728281163382e-25
1.3977629195835e-25
1.1005845407149e-25
8.4407277362287e-26
6.3077330793908e-26
4.5946539729618e-26
3.2632455699955e-26
2.2603745890319e-26
1.5273837088245e-26
1.0070365210272e-26
6.4796898365181e-27
4.0695773649801e-27
2.4951532614599e-27
1.493681873709e-27
8.7314467223907e-28
4.984601690128e-28
2.7792972111568e-28
1.5136989922896e-28
8.0534081442388e-29
4.1858864213078e-29
2.1256466152838e-29
1.0546676007871e-29
5.113083791599e-30
2.4222100610648e-30
1.1212906303527e-30
5.0724194783823e-31
2.2423997899975e-31
9.6876733582984e-32
4.0901524542416e-32
1.6876231338049e-32
6.8049858934754e-33
2.6815878644262e-33
1.6428846005488e-33
0
0
0
0
0
2.4753767734564e-50
-1.0649531332722e-47
-7.7293234439146e-46
-2.6469088791004e-44
-5.932176862239e-43
-9.8615755409434e-42
-1.3001948847673e-40
-1.4176312061327e-39
-1.3153817853341e-38
-1.0605568697138e-37
-7.549223851053e-37
-4.8036998876691e-36
-2.7601044470156e-35
-1.4439415284123e-34
-6.9256491194514e-34
-3.063481133933e-33
-1.2560585671613e-32
-4.7945674530669e-32
-1.7104099050238e-31
-5.7217708520072e-31
-1.8002875745921e-30
-5.3418836684615e-30
-1.4983943149194e-29
-3.9817036555264e-29
-1.0042956349331e-28
-2.4085724933326e-28
-5.5010327917162e-28
-1.1981951735235e-27
-2.4920607372457e-27
-4.954800172924e-27
-9.426720798572e-27
-1.7176506082896e-26
-2.9995925888134e-26
-5.0233567418802e-26
-8.0707237565028e-26
-1.2442901439826e-25
-1.8409084147773e-25
-2.6129948601819e-25
-3.5561852404515e-25
-4.635621383152e-25
-5.7776943045977e-25
-6.8663860370165e-25
-7.7468749293551e-25
-8.2381161828548e-25
-8.1543662527226e-25
-7.3333968961906e-25
-5.6669891531266e-25
-3.1278548549008e-25
2.130546321702e-26
4.1835848918806e-25
8.5238669804468e-25
1.2915003311945e-24
1.7018432329506e-24
2.0519127996619e-24
2.3164999097676e-24
2.4795772456734e-24
2.5356989534106e-24
2.4897876878943e-24
2.3554974249336e-24
2.1525805126046e-24
1.9038100492259e-24
1.6320033517236e-24
1.3575808190899e-24
1.096919911516e-24
8.6157562921042e-25
6.5827891632418e-25
4.8951898342618e-25
3.5447228488919e-25
2.5005184287462e-25
1.7189830862755e-25
1.1519840410502e-25
7.5279734352141e-26
4.7981766337981e-26
2.9835890412313e-26
1.8103158199969e-26
1.0720162424017e-26
6.1965699363786e-27
3.4967827910074e-27
1.926687807205e-27
1.0366492427216e-27
5.4472500035227e-28
2.7956973151064e-28
1.4015488931616e-28
6.8638106399319e-29
3.2839077914827e-29
1.5350096491514e-29
7.010483725102e-30
3.1283856480554e-30
1.3640908632396e-30
5.8120454551985e-31
2.4198370299169e-31
9.845101428149e-32
3.9141156258797e-32
1.5206379428341e-32
9.1086246029366e-33
0
0
0
0
7.0096559772743e-62
4.2669917385984e-49
-1.0901098260467e-46
-8.2424387233896e-45
-2.8426757336421e-43
-6.3696891820061e-42
-1.0558226089567e-40
-1.3862576610406e-39
-1.5041860436815e-38
-1.3884627638978e-37
-1.1134570143596e-36
-7.8823318908336e-36
-4.9879745376593e-35
-2.8501705748558e-34
-1.4828775504188e-33
-7.0737327242667e-33
-3.112178020162e-32
-1.269269199612e-31
-4.8197620848652e-31
-1.7106062064293e-30
-5.693756460245e-30
-1.7826969772756e-29
-5.2644141447538e-29
-1.4698033900379e-28
-3.8881477296735e-28
-9.7644121527419e-28
-2.3320252987227e-27
-5.3051202605943e-27
-1.1512163954681e-26
-2.3860677013697e-26
-4.729121210201e-26
-8.9723104887028e-26
-1.6310105522673e-25
-2.8430793936686e-25
-4.7555389491304e-25
-7.637176951706e-25
-1.1780733162666e-24
-1.7459612752153e-24
-2.4863192905761e-24
-3.4015705762196e-24
-4.4690917533661e-24
-5.6341610691311e-24
-6.8066728195652e-24
-7.8637560450679e-24
-8.6596193094663e-24
-9.0425111161431e-24
-8.8769106522654e-24
-8.0673965062592e-24
-6.5795890623703e-24
-4.4535266576236e-24
-1.8059622707719e-24
1.1798298193853e-24
4.2755572641059e-24
7.237118685514e-24
9.8362835891677e-24
1.1889179440864e-23
1.3276769775543e-23
1.3954361986626e-23
1.3949530504805e-23
1.3350084185664e-23
1.2285340948975e-23
1.090470993e-23
9.3573961076694e-24
7.7761357822467e-24
6.2665783287439e-24
4.9026071081384e-24
3.7268245352577e-24
2.7547713819257e-24
1.9812336332054e-24
1.3871331027354e-24
9.458662781729e-25
6.2840758328275e-25
4.0691408101442e-25
2.5688894482325e-25
1.5815621886222e-25
9.4979366681246e-26
5.5650279405065e-26
3.1818803943894e-26
1.7756348203397e-26
9.6726196868718e-27
5.144176095612e-27
2.6713036964757e-27
1.3546131297109e-27
6.7086562435632e-28
3.245061012892e-28
1.5332449520216e-28
7.0767123096096e-29
3.1908671260761e-29
1.4056105174365e-29
6.0494861189779e-30
2.5438036899246e-30
1.0451319791365e-30
4.195545219811e-31
1.6456566762002e-31
6.3070177964488e-32
3.6976447708761e-32
0
0
0
0
2.5022768578845e-60
4.8867695420299e-48
-8.2053673334104e-46
-6.5297843173704e-44
-2.27275887997e-42
-5.096603549759e-41
-8.4286506302325e-40
-1.1025340021773e-38
-1.1909618165716e-37
-1.0939259095999e-36
-8.7271213598048e-36
-6.1450890718679e-35
-3.8675308196074e-34
-2.1978328973461e-33
-1.1371904665386e-32
-5.3948341042632e-32
-2.3604658175065e-31
-9.5740623109688e-31
-3.6156352658862e-30
-1.2762448363215e-29
-4.224905317744e-29
-1.315647659161e-28
-3.8642630627443e-28
-1.073104768282e-27
-2.8236130520801e-27
-7.0534849116518e-27
-1.6757341951382e-26
-3.7923195969157e-26
-8.1871762591561e-26
-1.6883596297063e-25
-3.3297782534277e-25
-6.2871274034464e-25
-1.1376124193641e-24
-1.9742980308095e-24
-3.288753897531e-24
-5.2616956466424e-24
-8.0894635168668e-24
-1.1955863171424e-23
-1.6990761825112e-23
-2.3218992100877e-23
-3.0507579676057e-23
-3.8523286637113e-23
-4.6714421182981e-23
-5.4329428874791e-23
-6.0479302215049e-23
-6.4241862805464e-23
-6.4795327432824e-23
-6.1559059680823e-23
-5.4313993424221e-23
-4.3276047535703e-23
-2.9103456782608e-23
-1.2831877072738e-23
4.2537218948095e-24
2.0787866979354e-23
3.5503231398812e-23
4.7387088516839e-23
5.5789569711294e-23
6.0469067180938e-23
6.1573615459485e-23
5.9569327536075e-23
5.5135271157528e-23
4.9047224606764e-23
4.2070733344196e-23
3.4878184426583e-23
2.7997220277463e-23
2.1790692339399e-23
1.6462951162449e-23
1.2084269390664e-23
8.6245566724754e-24
5.9886937477827e-24
4.0479994691915e-24
2.6647894274589e-24
1.7091245148235e-24
1.0683780629796e-24
6.5110380932264e-25
3.8696118435819e-25
2.2432667296289e-25
1.2687720738017e-25
7.002581826212e-26
3.7720585576282e-26
1.9833992149415e-26
1.0181506136413e-26
5.1031267916842e-27
2.4976381512815e-27
1.1938025315559e-27
5.5729001675926e-28
2.5410143353273e-28
1.1317146259393e-28
4.9237204421022e-29
2.0926430670356e-29
8.6887449265392e-30
3.524439881057e-30
1.3966954990828e-30
5.407490239423e-31
2.0453725836419e-31
1.1746433509337e-31
0
0
0
0
4.4353355655166e-59
4.1825634099926e-47
-4.8208507111128e-45
-4.0945180252468e-43
-1.4416875272313e-41
-3.2385558546275e-40
-5.3464256579914e-39
-6.9699064228715e-38
-7.4969381427389e-37
-6.8533685648697e-36
-5.439775953145e-35
-3.8101756850795e-34
-2.3850664861354e-33
-1.3479480879162e-32
-6.9358114942371e-32
-3.2719669071266e-31
-1.4235765100422e-30
-5.7414232495623e-30
-2.1559421602157e-29
-7.5666702579653e-29
-2.4905481823858e-28
-7.7110420245275e-28
-2.2517677044477e-27
-6.2168479313088e-27
-1.6262700324155e-26
-4.0386829246009e-26
-9.5385151857233e-26
-2.1459236098915e-25
-4.6054855842468e-25
-9.4415249795767e-25
-1.8511417312223e-24
-3.4749159224932e-24
-6.2515252918858e-24
-1.0788223961555e-23
-1.7872165277635e-23
-2.8442238594542e-23
-4.3506989938039e-23
-6.3997310875289e-23
-9.0555392308076e-23
-1.2328048712279e-22
-1.6147366682752e-22
-2.0344176840197e-22
-2.4642772418098e-22
-2.8672433755224e-22
-3.1999918368329e-22
-3.4181345361908e-22
-3.4826701928897e-22
-3.3665945937207e-22
-3.0603584347291e-22
-2.5749565012513e-22
-1.9418403739442e-22
-1.2094832756214e-22
-4.37133695239e-23
3.1310863832787e-23
9.8442861901976e-23
1.5321885535111e-22
1.9284591597725e-22
2.1636274537883e-22
2.2451447352962e-22
2.194013909588e-22
2.0399494070752e-22
1.8162291582916e-22
1.5551200919281e-22
1.2844708659984e-22
1.0257234856928e-22
7.9328613173843e-23
5.9499107185019e-23
4.3325577829777e-23
3.0656220764357e-23
2.1093826877673e-23
1.4122980909041e-23
9.2058357750492e-24
5.8447384559507e-24
3.6157996371874e-24
2.1803745642899e-24
1.281965898545e-24
7.3511520315304e-25
4.1121492620335e-25
2.2444279298507e-25
1.1954844041029e-25
6.2151604456052e-26
3.154215347035e-26
1.5628376309816e-26
7.5607730164495e-27
3.5718124962501e-27
1.6478438357121e-27
7.4246885370148e-28
3.2673860259214e-28
1.4044413470816e-28
5.8966398804829e-29
2.4183351281315e-29
9.6883226178202e-30
3.7914619278412e-30
1.4494160959699e-30
5.4126078949993e-31
3.0468100709182e-31
0
0
0
0
5.2123041201188e-58
2.8533549025337e-46
-2.2857436531592e-44
-2.1141805380226e-42
-7.5523661375577e-41
-1.701310784974e-39
-2.8052469391579e-38
-3.6459289089395e-37
-3.905794529976e-36
-3.5540272380231e-35
-2.8069193389962e-34
-1.9557864522801e-33
-1.2176781167874e-32
-6.8439879043128e-32
-3.501858999776e-31
-1.642648752293e-30
-7.1059933417446e-30
-2.8493639052253e-29
-1.0637192816291e-28
-3.7113643509617e-28
-1.2143375856521e-27
-3.7372268996962e-27
-1.0847445739696e-26
-2.9765755080559e-26
-7.7385116353455e-26
-1.9098477274057e-25
-4.4824094460875e-25
-1.0020668635432e-24
-2.1369426167236e-24
-4.352936539148e-24
-8.4800039245395e-24
-1.5816751155037e-23
-2.8273811968586e-23
-4.848333277929e-23
-7.9816798551207e-23
-1.2624082659195e-22
-1.9194406137138e-22
-2.8069663552762e-22
-3.9496053428522e-22
-5.3484907808912e-22
-6.9711969268428e-22
-8.7444974617178e-22
-1.0552612849912e-21
-1.2243052156981e-21
-1.3640849464303e-21
-1.4570139652571e-21
-1.4880042125565e-21
-1.4470276988663e-21
-1.3311336320406e-21
-1.1454664549544e-21
-9.0301184587885e-22
-6.2305771925744e-22
-3.2863047597634e-22
-4.3382361660905e-23
2.1149124842581e-22
4.1975840522355e-22
5.7168789254558e-22
6.6445147104143e-22
7.0146459505083e-22
6.9093207157948e-22
6.4397275625469e-22
5.7270844671255e-22
4.8863164228546e-22
4.0144718758891e-22
3.1845159234957e-22
2.4440269405191e-22
1.8176022002699e-22
1.3114932068878e-22
9.1907412232161e-23
6.2606469538715e-23
4.1483960099829e-23
2.6754392416764e-23
1.6803034011027e-23
1.0281363010045e-23
6.1312704533074e-24
3.5647667233479e-24
2.0212378848362e-24
1.1179374626308e-24
6.032882323173e-25
3.1770217149923e-25
1.6329504627814e-25
8.1930010434444e-26
4.0131114395145e-26
1.9192479413707e-26
8.9625039890764e-27
4.0870214069952e-27
1.8200752718685e-27
7.915850692178e-28
3.3623918490606e-28
1.39493614899e-28
5.6522945042839e-29
2.2369972120363e-29
8.6472655157038e-30
3.2648567329001e-30
1.203975334206e-30
6.6461089812902e-31
0
0
0
0
4.5650146450083e-57
1.615952020142e-45
-8.8850410186086e-44
-9.2314653103348e-42
-3.3579842759798e-40
-7.5954851841685e-39
-1.251673580003e-37
-1.6224038070291e-36
-1.7314181140789e-35
-1.5684342558847e-34
-1.2326658102986e-33
-8.5444479733702e-33
-5.2912226503174e-32
-2.9575375775453e-31
-1.5047630337277e-30
-7.0181485737227e-30
-3.0183985389446e-29
-1.2032128132086e-28
-4.4651376337713e-28
-1.5485527379185e-27
-5.0360253379468e-27
-1.5403710409799e-26
-4.4432621683841e-26
-1.2116048988899e-25
-3.1299866987016e-25
-7.6753209227142e-25
-1.7897603243297e-24
-3.9750253011137e-24
-8.4211660868381e-24
-1.7040283849398e-23
-3.29752270414e-23
-6.1093106846529e-23
-1.0847579870388e-22
-1.8476088195946e-22
-3.0212202620076e-22
-4.7464273564914e-22
-7.1686481459016e-22
-1.0414106886767e-21
-1.4557938227527e-21
-1.9588163999949e-21
-2.5372413494115e-21
-3.1636210130292e-21
-3.7961693864449e-21
-4.3813158423194e-21
-4.8590811879769e-21
-5.1707620369167e-21
-5.2677584210484e-21
-5.1199226531894e-21
-4.7217033539529e-21
-4.0946773766829e-21
-3.2857539240762e-21
-2.3612363753764e-21
-1.3978081116967e-21
-4.7214101114064e-22
3.4894769007504e-22
1.0160839589022e-21
1.501549275433e-21
1.7997720911829e-21
1.9245167694947e-21
1.9037580341308e-21
1.7735002373231e-21
1.5717606368226e-21
1.3336518450132e-21
1.0880855563614e-21
8.5619935328715e-22
6.5127566072701e-22
4.7972630511817e-22
3.4266094285419e-22
2.3761215564937e-22
1.6010761663462e-22
1.0491463413964e-22
6.6900735446054e-23
4.1537898413396e-23
2.5124069593517e-23
1.4809844015777e-23
8.51105466815e-24
4.7700559943723e-24
2.6078687832772e-24
1.3911297541702e-24
7.2418796170506e-25
3.6796403002688e-25
1.8251003567468e-25
8.8377600916709e-26
4.1783975766606e-26
1.9289454809632e-26
8.6955479716016e-27
3.827890505582e-27
1.6455902208573e-27
6.9086566102391e-28
2.8325774429453e-28
1.134200045841e-28
4.4352460770915e-29
1.6938062937275e-29
6.3171739399629e-30
2.3008455180735e-30
1.245953869209e-30
0
0
0
0
3.1790260342871e-56
7.8131826790397e-45
-2.8248440910936e-43
-3.4726789445793e-41
-1.2924522966414e-39
-2.9400085611581e-38
-4.8456857320777e-37
-6.2666480424645e-36
-6.663935792075e-35
-6.0105974923737e-34
-4.701204569155e-33
-3.2420417395584e-32
-1.9969215721183e-31
-1.1100209182018e-30
-5.6157432066049e-30
-2.6040737185365e-29
-1.1134214775983e-28
-4.4120801832938e-28
-1.627506396275e-27
-5.6101178588187e-27
-1.8132796010781e-26
-5.5119704431201e-26
-1.5800200190998e-25
-4.2812997769867e-25
-1.0989706927709e-24
-2.6775906974942e-24
-6.2032801070988e-24
-1.3687362187452e-23
-2.8805762999435e-23
-5.790079156946e-23
-1.112931361101e-22
-2.0479395129226e-22
-3.6113743518146e-22
-6.1084904555566e-22
-9.9188037433625e-22
-1.5472677602532e-21
-2.3202092218963e-21
-3.3463780061475e-21
-4.6440011052813e-21
-6.2031145762834e-21
-7.9762333746135e-21
-9.8731380160315e-21
-1.1762301950441e-20
-1.34805198114e-20
-1.4850639721542e-20
-1.5705302908093e-20
-1.5912786088878e-20
-1.539998753689e-20
-1.4167692177562e-20
-1.2294574180911e-20
-9.92866293318e-21
-7.2676390036263e-21
-4.5316581611442e-21
-1.9338376467832e-21
3.4624133217001e-22
2.1816378936781e-21
3.5072307915643e-21
4.3186355313135e-21
4.6625161618034e-21
4.621311045005e-21
4.2959079041127e-21
3.7894994128182e-21
3.1949484513975e-21
2.5868166877599e-21
2.0180838596799e-21
1.5207443624187e-21
1.1090210381443e-21
7.8386847756169e-22
5.3764914826361e-22
3.5822038549256e-22
2.3204482379837e-22
1.462459288246e-22
8.9734818050189e-23
5.3633995062687e-23
3.1240971664764e-23
1.7741397501775e-23
9.8260114769996e-24
5.309044811885e-24
2.7990300253939e-24
1.4402382583878e-24
7.2337559351228e-25
3.5468998019495e-25
1.6979707919724e-25
7.9366673622021e-26
3.6223865229568e-26
1.6144147679925e-26
7.0260086350562e-27
2.9859360368364e-27
1.2391732743494e-27
5.0218279685832e-28
1.9873116470261e-28
7.6795972927435e-29
2.8978189063426e-29
1.0677128001431e-29
3.8412820632975e-30
2.0411136937792e-30
0
0
0
0
1.8335454039504e-55
3.2918283663143e-44
-7.0925456284469e-43
-1.1402027120314e-40
-4.3696550468993e-39
-1.0015909696598e-37
-1.6525699444081e-36
-2.1333801106437e-35
-2.2612419403946e-34
-2.0311347457968e-33
-1.5812282366392e-32
-1.0849405827485e-31
-6.6471467822903e-31
-3.6745782181693e-30
-1.8485062980213e-29
-8.5222366756173e-29
-3.6224792338713e-28
-1.4269300377291e-27
-5.232001485251e-27
-1.7925884364585e-26
-5.7586156238598e-26
-1.7397583225584e-25
-4.9563185213326e-25
-1.3346688840508e-24
-3.4046446687596e-24
-8.2433333881103e-24
-1.8977361714639e-23
-4.1607268143362e-23
-8.700384571381e-23
-1.7374898161351e-22
-3.3177800517977e-22
-6.0644807842888e-22
-1.0621722350414e-21
-1.7842010199926e-21
-2.8766797396851e-21
-4.4550172230028e-21
-6.6311438054023e-21
-9.4915802636859e-21
-1.3070314946383e-20
-1.7320891793158e-20
-2.2094134805074e-20
-2.7128723959236e-20
-3.2060706906725e-20
-3.6454790235351e-20
-3.9855423616905e-20
-4.1850460528678e-20
-4.213608340855e-20
-4.0570075573821e-20
-3.7202084094129e-20
-3.2273974325721e-20
-2.6189584679545e-20
-1.9459523105492e-20
-1.2631520204136e-20
-6.2191805275789e-21
-6.4140617079055e-22
3.8183061549678e-21
7.0281413101378e-21
9.0003036217308e-21
9.8642103126317e-21
9.8280755064277e-21
9.1372283777264e-21
8.0365110535011e-21
6.7418270740202e-21
5.4231035682252e-21
4.1983218387072e-21
3.1363915656175e-21
2.2657220635163e-21
1.5853169726241e-21
1.0758243024894e-21
7.0887703603745e-22
4.5396389170978e-22
2.827817297229e-22
1.7146339366138e-22
1.0126276855508e-22
5.8279666806164e-23
3.2701631070933e-23
1.7896642127731e-23
9.5556299184073e-24
4.9790030563401e-24
2.5322526959257e-24
1.2572423360301e-24
6.0943349594178e-25
2.8844448671402e-25
1.3330543234862e-25
6.0158160132972e-26
2.6509787836131e-26
1.1407257732112e-26
4.7930695334169e-27
1.9665044534719e-27
7.8779654968873e-28
3.0814767422737e-28
1.1768362101442e-28
4.3880454642512e-29
1.5973822546414e-29
5.6769201818663e-30
2.9604498996827e-30
0
0
0
0
9.0085013400814e-55
1.2274917709582e-43
-1.2163671477724e-42
-3.2958038349206e-40
-1.312097186612e-38
-3.0381204484343e-37
-5.0236663437242e-36
-6.4776881354993e-35
-6.846051136688e-34
-6.1254353165225e-33
-4.7470297502369e-32
-3.2409848965865e-31
-1.97523824139e-30
-1.0859505472285e-29
-5.4321477173601e-29
-2.4900040993275e-28
-1.0522282249123e-27
-4.1203816564927e-27
-1.5018137861647e-26
-5.1148523083765e-26
-1.6333237537955e-25
-4.9050917774346e-25
-1.3890788156942e-24
-3.7184086123327e-24
-9.4292343292268e-24
-2.2694995536158e-23
-5.1937529779294e-23
-1.1319322512223e-22
-2.352735645545e-22
-4.6698911615257e-22
-8.8620865923644e-22
-1.6096348556358e-21
-2.800934935942e-21
-4.6735147434643e-21
-7.4832573130541e-21
-1.150663417795e-20
-1.7001386714415e-20
-2.415076615684e-20
-3.2997726467447e-20
-4.3381227733532e-20
-5.4890965364427e-20
-6.6857299949004e-20
-7.838857471921e-20
-8.8458580732855e-20
-9.6034748103678e-20
-1.0022618591784e-19
-1.0042364325692e-19
-9.6403267517366e-20
-8.8372931960789e-20
-7.6951872156915e-20
-6.3088006856425e-20
-4.7929139612667e-20
-3.2671765383099e-20
-1.8413423910968e-20
-6.0317352635249e-21
3.8934328226389e-21
1.1107185359337e-20
1.5658190043484e-20
1.7838789282045e-20
1.8102161886036e-20
1.6973760984828e-20
1.4972286989772e-20
1.2550730319738e-20
1.0062048878174e-20
7.7484397435631e-21
5.7491423149164e-21
4.1198130363727e-21
2.8565966316546e-21
1.9194736478664e-21
1.251516350692e-21
7.926677744379e-22
4.8815866658932e-22
2.9255416797788e-22
1.7074152870076e-22
9.7101868161999e-23
5.3839172758104e-23
2.9116548513224e-23
1.5364014116731e-23
7.9124790887455e-24
3.977900011649e-24
1.9525092672846e-24
9.3577811341603e-25
4.3794308494903e-25
2.0014167536221e-25
8.9316459243936e-26
3.8921591693719e-26
1.6561524940279e-26
6.880859757284e-27
2.7912439351191e-27
1.1054643415747e-27
4.2742752412611e-28
1.6133556038864e-28
5.9446578608435e-29
2.1381202598608e-29
7.5062852222432e-30
3.8421296172416e-30
0
0
0
0
3.8488521923173e-54
4.1009592939021e-43
-1.8446353377683e-43
-8.4241313362181e-40
-3.5282005730699e-38
-8.2794742249076e-37
-1.3739517978076e-35
-1.7708639433804e-34
-1.8669828005144e-33
-1.6644314940368e-32
-1.2842865828413e-31
-8.726017397444e-31
-5.290665439298e-30
-2.8929962728982e-29
-1.4390701704936e-28
-6.5589127167426e-28
-2.7556942181886e-27
-1.0728329795058e-26
-3.887612793587e-26
-1.316386029943e-25
-4.1795234766751e-25
-1.2480567863525e-24
-3.5146273694974e-24
-9.3563749019166e-24
-2.3596878264984e-23
-5.6488257696349e-23
-1.285792922818e-22
-2.7872124563046e-22
-5.7618957245024e-22
-1.1373856448557e-21
-2.1463229281322e-21
-3.8759495773837e-21
-6.7044833943955e-21
-1.1118008348278e-20
-1.768883426354e-20
-2.7020117855566e-20
-3.9652316237411e-20
-5.5936481289159e-20
-7.589172480764e-20
-9.907598059237e-20
-1.2450589034564e-19
-1.5065916766975e-19
-1.7557950316047e-19
-1.9708203766458e-19
-2.1303229137541e-19
-2.2165066157189e-19
-2.2178479742057e-19
-2.1309657993008e-19
-1.9612779182552e-19
-1.7223366279084e-19
-1.4339934244419e-19
-1.1197478625858e-19
-8.0374917155323e-20
-5.0793571902663e-20
-2.4973076340712e-20
-4.0586308014293e-21
1.1449494800817e-20
2.1650082240011e-20
2.7120781911366e-20
2.8753559086722e-20
2.7579473474445e-20
2.4613003521992e-20
2.0736861845181e-20
1.6636207513893e-20
1.2779755480942e-20
9.4371654016035e-21
6.7184357867822e-21
4.6214899297478e-21
3.0773555378242e-21
1.9866412415114e-21
1.2450146138374e-21
7.5828546649333e-22
4.4928235413747e-22
2.591800974236e-22
1.4567788031104e-22
7.9828709206493e-23
4.2669205643128e-23
2.2255223537675e-23
1.1330326525373e-23
5.6317111890163e-24
2.7333062206024e-24
1.2954534142723e-24
5.9959063134813e-25
2.7100955204042e-25
1.1961786912556e-25
5.1554423047716e-26
2.1695310769896e-26
8.913844662738e-27
3.5754606233264e-27
1.4000249403057e-27
5.3511452387062e-28
1.9963505665997e-28
7.2690789369186e-29
2.583146767887e-29
8.9582104666275e-30
4.5008313847365e-30
0
0
0
0
1.4526025106666e-53
1.2396982297988e-42
9.1301891640377e-42
-1.9030010958776e-39
-8.5461267342189e-38
-2.0413472381213e-36
-3.4057493010341e-35
-4.3918280043852e-34
-4.621423199394e-33
-4.1066158848061e-32
-3.1556930908206e-31
-2.1341289761069e-30
-1.2874205380033e-29
-7.0024267617411e-29
-3.4641423210399e-28
-1.5700409581881e-27
-6.5592365665433e-27
-2.5392054657418e-26
-9.149820732793e-26
-3.0811609233373e-25
-9.7299561327398e-25
-2.890229562712e-24
-8.0976002241703e-24
-2.1450013653451e-23
-5.3836192566238e-23
-1.2826927118654e-22
-2.9060879334892e-22
-6.2703346022385e-22
-1.2902044696963e-21
-2.5347989196873e-21
-4.7602132610501e-21
-8.5535203608335e-21
-1.4719749699017e-20
-2.4280918356844e-20
-3.8422764042394e-20
-5.8372014305513e-20
-8.5199351603348e-20
-1.1956319954577e-19
-1.6143247138036e-19
-2.098451603105e-19
-2.6276696161753e-19
-3.171060994793e-19
-3.6891766465476e-19
-4.137966758538e-19
-4.4741889622992e-19
-4.6614895697639e-19
-4.67606297505e-19
-4.5107260085299e-19
-4.1764828170252e-19
-3.701183046521e-19
-3.1255427032539e-19
-2.4973802039317e-19
-1.8652340724062e-19
-1.2725132877486e-19
-7.5305860545462e-20
-3.2860073012867e-20
-8.2106312182458e-22
2.1048527548852e-20
3.3878498179327e-20
3.9368002682286e-20