/*--------------------------------*- C++ -*----------------------------------*\
  =========                 |
  \\      /  F ield         | OpenFOAM: The Open Source CFD Toolbox
   \\    /   O peration     | Website:  https://openfoam.org
    \\  /    A nd           | Version:  7
     \\/     M anipulation  |
\*---------------------------------------------------------------------------*/
FoamFile
{
    version     2.0;
    format      ascii;
    class       surfaceScalarField;
    location    "3.5";
    object      alphaPhi0.water;
}
// * * * * * * * * * * * * * * * * * * * * * * * * * * * * * * * * * * * * * //

dimensions      [0 3 -1 0 0 0 0];

internalField   nonuniform List<scalar> 
11840
(
0
0
0
0
0
0
0
0
0
0
0
0
0
0
0
0
0
0
0
0
0
0
0
0
0
0
0
0
0
0
0
0
0
0
0
0
0
0
0
0
0
0
0
0
0
0
0
0
0
0
0
0
0
0
0
0
0
0
0
0
0
0
0
0
0
0
0
0
0
0
0
0
0
0
0
0
0
0
0
0
0
0
0
0
0
0
0
0
0
0
0
0
0
0
0
0
0
0
0
0
0
0
0
0
0
0
0
0
0
0
0
0
0
0
0
0
0
0
0
0
0
0
0
0
0
0
0
0
0
0
0
0
0
0
0
0
0
0
0
0
0
0
0
0
0
0
0
0
0
0
0
0
0
0
0
0
0
0
0
0
0
0
0
0
0
0
0
0
0
0
0
0
0
0
0
0
0
0
0
0
0
0
0
0
0
0
0
0
0
0
0
0
0
0
0
0
0
0
0
0
0
0
0
0
0
0
0
0
0
0
0
0
0
0
0
0
0
0
0
0
0
0
0
0
0
0
0
0
0
0
0
0
0
0
0
0
0
1.55779122237e-215
7.7888891531094e-216
1.1855820057524e-214
5.9279100287622e-215
4.8413811960937e-214
2.4206905980196e-214
1.3957896742545e-213
6.9789792534448e-214
2.5377994094656e-214
1.1420097335209e-213
6.1172624313995e-195
0
2.409595123607e-194
1.0649973773795e-194
4.3810820429451e-195
1.9714869193053e-194
7.9656037144635e-196
3.5845216714763e-195
1.4482915845296e-196
6.5173121289781e-196
5.1644979956513e-194
0
2.5384138000141e-193
-2.7395199534743e-217
4.6152978182174e-194
2.0768840181932e-193
5.784198202652e-194
2.892099101326e-194
1.963841042792e-193
0
6.5793525861303e-193
0
2.1039347346092e-192
0
3.8253358811122e-193
1.721401146499e-192
6.9551561474864e-194
3.1298202663633e-193
2.0657900954561e-193
0
5.6386716373297e-193
0
3.6567497435364e-193
3.7683626637678e-193
3.0567491608551e-193
0
5.5577257470093e-194
2.5009765861542e-193
4.9590058955028e-194
2.4795029477514e-194
9.0163743554598e-195
4.0573684599568e-194
1.7075666755157e-194
4.9434816188811e-195
3.6107348442968e-194
0
6.5649724441761e-195
2.9542375998792e-194
1.1972409047521e-194
0
2.1768016450038e-195
9.7956074025168e-195
3.5760688685706e-195
0
5.4778330381062e-195
0
9.9596964329206e-196
4.4818633948142e-195
1.4818226582114e-195
0
2.6942230149298e-196
1.2124003567184e-195
4.8985872998724e-197
2.2043642849425e-196
7.2253594395921e-197
0
1.3947180690717e-197
6.2762313108223e-197
1.9009300758196e-197
0
3.4562365014908e-198
1.5553063876499e-197
4.6348264554582e-198
0
8.4269571918158e-199
3.7921307362787e-198
6.5875374130062e-199
3.2937687065031e-199
1.1977340751117e-199
5.3898033379001e-199
9.2781944278503e-200
4.6390972139251e-200
1.6869445022034e-200
8.4347225110172e-201
3.0671718774391e-201
1.3802273400867e-200
7.1487106538732e-201
3.5743553269366e-201
8.9694734378778e-201
0
6.3234393576689e-201
3.1617196788344e-201
6.9828430374387e-201
0
1.2696134440744e-201
5.7132320091361e-201
1.4054687588466e-201
0
2.5554018733961e-202
1.1499289608065e-201
1.7976503087209e-202
8.9882515436047e-203
3.2685391575633e-203
1.4708001763669e-202
3.4487868034761e-203
0
3.4270000120101e-203
0
6.6612201795305e-204
2.760494981873e-203
6.2703928736055e-204
0
1.2060929383158e-204
5.0933204555744e-204
1.1138220387353e-204
0
7.0876756238166e-205
3.5438378119083e-205
6.6199918187769e-205
0
6.4659788376178e-205
0
3.2573497273609e-205
3.6920578779592e-205
3.5582081560459e-205
0
2.449298373508e-205
1.224649186754e-205
2.4164348037094e-205
0
1.5538196735918e-205
7.8818094227439e-206
9.7780958122149e-206
4.8890479061074e-206
8.3659006197095e-206
0
4.9671005497869e-206
2.4835502748935e-206
3.9386206765028e-206
0
2.233271894394e-206
1.116662527206e-206
1.6536482364153e-206
0
1.1806846054447e-206
0
6.4870960283993e-207
3.2435480141997e-207
4.3933757452734e-207
0
2.2492149307189e-207
0
0
0
0
0
0
0
0
0
0
0
0
0
0
0
0
0
0
0
0
0
0
0
0
0
0
0
0
0
0
0
0
0
0
0
0
0
0
2.1372249141498e-160
1.0686124570749e-160
1.174968816006e-156
5.87484408003e-157
1.0681534688961e-156
1.0681534697429e-157
1.0250665447337e-145
3.7892750317816e-146
1.279333222913e-129
0
6.4229273165657e-129
0
6.4229273165657e-129
0
4.9034075864559e-128
0
2.7107378971371e-129
4.9124169983522e-128
1.8268725661705e-129
8.8386527986656e-130
6.7079930315959e-129
0
1.1360377672835e-128
4.2704167944416e-129
4.4144413341744e-128
2.2072155995054e-128
2.7795943106141e-129
4.1364819031129e-128
7.4440892976054e-129
2.689159994337e-129
1.116108156155e-128
4.4582327770789e-129
1.8423432264582e-128
0
3.2764096055031e-127
0
1.0197086028741e-128
3.1744387452157e-127
1.4733618766484e-128
0
5.5933881876005e-126
0
5.4813450149692e-126
1.0685488874396e-127
4.7484782651835e-124
2.2355415426347e-124
1.614603508232e-123
8.025933763253e-124
8.6968505105171e-125
1.7755230489282e-123
1.3041253372439e-124
8.6795235234402e-125
1.3041253372439e-124
0
2.9544933427456e-124
0
3.5150512576003e-124
0
3.6086460940389e-124
0
2.317021765547e-124
1.412482026228e-124
1.4572842104013e-124
7.0001828779034e-125
1.7559770392918e-124
0
1.848333637971e-124
9.0867473835836e-125
1.9556862113202e-124
9.4898999343547e-125
1.9905428411165e-124
9.9527095110041e-125
5.8971469726662e-125
4.824938432185e-124
5.7152674813984e-125
0
3.2454719716457e-126
4.743662814256e-125
3.2449589993499e-126
0
1.0250260971258e-127
3.1424563896373e-126
1.0247660397967e-127
0
9.226863934503e-128
0
3.2474340884519e-129
8.9021205256578e-128
3.1971685298544e-129
0
5.8130336906444e-130
2.6158651607899e-129
1.051720583697e-130
4.7613131069474e-130
9.8888006033711e-131
0
3.0780463368894e-132
9.5809959696821e-131
3.0779545949948e-132
0
7.8575165490278e-134
2.9993794295045e-132
7.9157898213726e-134
0
7.9157898213726e-134
0
3.2097869326939e-134
0
3.209438207723e-134
0
5.8353421958602e-135
2.625903988137e-134
3.0838901861944e-136
5.5269531772407e-135
1.0391013458836e-136
0
1.038930592565e-136
0
3.9544243944307e-138
9.9938634862073e-137
3.7882652444732e-138
0
5.6777184876026e-139
3.2204933957129e-138
4.2215882246297e-139
0
1.1530564495304e-140
4.1062825796767e-139
1.1531545054911e-140
0
8.4719555991538e-141
0
5.2868938352823e-141
0
3.4638121224705e-141
0
9.1649341195012e-143
3.3721627812755e-141
9.1623314898956e-143
0
6.1099892255832e-143
0
8.6643706496554e-144
5.2435521606177e-143
5.8770712946012e-144
0
1.7533462332839e-145
5.7017366712728e-144
1.3091697271517e-145
0
7.9972198202845e-146
0
4.4889705209087e-146
0
2.943019878222e-146
0
8.677685981383e-148
2.8562430184082e-146
8.3830360492992e-148
0
0
0
0
0
0
0
0
0
0
0
0
0
0
0
0
0
0
0
0
0
0
0
0
0
0
0
0
0
0
0
0
0
0
0
0
-2.2170220295063e-98
-1.1085110147532e-98
-5.9306429732386e-97
-2.9653214866193e-97
-9.1252344119424e-96
-4.5626172059712e-96
-1.000105701339e-94
-5.000528506695e-95
-8.3163347705664e-94
-4.1581673852832e-94
-5.5253327619245e-93
-2.7626663809622e-93
1.726020832121e-81
9.8569550769205e-82
6.1173474257735e-81
3.9006132389953e-81
3.0524050056996e-80
2.7831402570129e-80
7.543783539173e-81
2.4289224061203e-80
1.3811158786927e-81
6.1626676498884e-81
4.5895229023841e-83
1.3352206496671e-81
4.5792295677108e-83
1.1911792560808e-85
8.3258583388427e-84
3.7466436981844e-83
9.3429180817414e-85
7.3915665306686e-84
2.5755686904416e-85
5.7950283884696e-85
2.3414260824155e-86
2.3414260822001e-85
1.3450545640958e-86
9.9737880293518e-87
1.0782055496557e-74
4.5985870322167e-75
2.8438706072514e-72
1.4658880508851e-72
1.4266132607351e-71
9.3726278465856e-72
3.6511614603413e-71
3.24193311022e-71
3.765146546982e-71
3.8033852131072e-71
6.6957681115648e-72
2.8040932698229e-71
1.302097113735e-72
5.3936054475951e-72
1.4909275894364e-73
1.1530043547914e-72
3.946795923001e-74
1.0503149849266e-73
3.5907601535428e-75
3.5877199076468e-74
1.6527564968991e-71
1.4806599675074e-71
1.0365084681998e-70
8.055133953564e-71
1.5285551170116e-70
1.3186012611282e-70
1.6646339660069e-70
1.6010440611366e-70
3.025001017752e-71
1.3621338642317e-70
2.751461125598e-72
2.7498549051922e-71
1.0343773294277e-70
0
1.9066648720427e-71
8.580078988955e-71
3.4666897638632e-72
1.5599958959707e-71
5.7300696201608e-73
2.8936828018471e-72
5.7300696201124e-74
5.1570626581495e-73
1.6421740151887e-67
0
1.4982012536091e-68
1.3483811282482e-67
1.1829945328113e-66
3.7982270983039e-67
2.5311336420909e-66
2.3919243612249e-66
5.9628865732555e-66
4.6617302901839e-66
1.7078641517715e-65
1.1632070488556e-65
3.5451486416652e-65
2.8041598499197e-65
8.9582137817492e-65
6.4160364312131e-65
1.8462130628468e-64
1.5006112771467e-64
3.6188014410166e-64
2.9172442724388e-64
8.4798677117915e-64
6.2815758536476e-64
1.5848248066538e-63
1.2940075672519e-63
3.3517514626467e-63
2.5259651230311e-63
5.9174577743482e-63
5.0573490195168e-63
9.4629943124078e-63
8.1395490499273e-63
1.5890247053743e-62
1.3489781785924e-62
1.9828328511211e-62
1.8663520833015e-62
2.3357104219306e-62
2.2972321779651e-62
2.3467497858965e-62
2.4877363284827e-62
2.2888998475444e-62
2.4370998931016e-62
2.3757206666983e-62
2.3757203783105e-62
2.2347566432113e-62
2.4356095269808e-62
1.9962057129785e-62
2.2399468706545e-62
1.6166212623816e-62
1.9083312412683e-62
1.1125443163745e-62
1.4374775893647e-62
5.7273787859806e-63
8.7145655510944e-63
2.0912431507547e-63
3.6992523672429e-63
4.8629013141177e-64
1.1873268084132e-63
7.1387914016502e-65
3.0338622900365e-64
1.5081589202044e-65
4.4708260253361e-65
3.1307686212874e-66
1.1672299489712e-65
5.1693818050281e-67
2.5566484792221e-66
1.3534814482045e-67
3.4306723310212e-67
3.2250295321846e-68
8.7931905636941e-68
5.9810317547675e-69
2.5310881438279e-68
9.7934816154315e-70
4.8681467787167e-69
2.5343685278717e-70
6.5065517356363e-70
6.5498259707549e-71
1.6194458709151e-70
1.6766538887123e-71
4.1231312704058e-71
4.2641037881064e-72
1.0510184659556e-71
1.0835638622916e-72
2.6683066350653e-72
2.6830639857528e-73
6.8216611791253e-73
8.052345041683e-74
1.5927616576812e-73
6.6089186665558e-74
0
0
0
0
0
0
0
0
0
0
0
0
0
0
0
0
0
0
4.8785096266784e-85
2.4547415254776e-85
4.5790098907964e-83
2.3493452838332e-83
2.1056412200153e-81
1.0812341765526e-81
7.2281882112442e-80
3.7466971490241e-80
1.656045949232e-78
8.7643616820841e-79
2.9581257910395e-77
1.573941719166e-77
5.3767155633001e-76
2.8611626423028e-76
7.9818654102186e-75
4.3111753427031e-75
1.3583838787329e-73
7.2339311391409e-74
1.8974944207261e-72
1.039988144209e-72
1.9525804170435e-71
1.0671551814455e-71
2.1676086504194e-70
1.1935385025894e-70
2.2045357325298e-69
1.2261389472731e-69
2.1897403403705e-68
1.2138956691586e-68
1.6133798906744e-67
9.2706971228744e-68
1.0635698899052e-66
6.1183355455589e-67
8.0146232436256e-66
4.5252315038387e-66
8.0272212192653e-65
4.5246380308545e-65
5.863598554378e-64
3.4582857730057e-64
1.7198343417059e-63
1.6962882221025e-63
1.8420564887717e-63
1.7988403537567e-63
3.1748973041389e-62
2.5475468793744e-62
3.3047939240471e-62
3.75325608946e-62
5.2769917777498e-63
2.4003657321058e-62
7.7387566409496e-61
6.9075469584259e-61
2.7134312694214e-61
4.9831674572478e-61
1.0232169530549e-59
4.48057100006e-60
1.6208795666924e-58
9.6382060623513e-59
4.1044235045101e-58
3.8552824249405e-58
3.3957035831941e-57
1.8352418816246e-57
1.7954051766921e-56
1.233690375981e-56
5.9988287579387e-56
3.7112669161741e-56
1.8728853546417e-55
1.4804284511772e-55
2.1665149984354e-55
2.2186035191195e-55
2.1721826305646e-56
1.6955557745077e-55
4.5006746790165e-56
1.3050608935997e-56
7.9798498868704e-57
2.0381409474783e-56
5.1727897478482e-57
1.5395301765908e-56
2.6100779164236e-57
2.5627118314249e-57
8.7616362139875e-57
0
4.5480601344414e-53
2.5057169157114e-53
3.9734523376929e-53
5.3455294201844e-53
2.0427455465481e-53
0
2.0427455465481e-53
0
1.309093874023e-51
6.4146353042213e-52
3.4517991086868e-51
2.5658541216885e-51
8.897340548994e-52
2.5620650537874e-51
1.8686256000437e-51
8.5528470722951e-52
3.9492951402616e-52
1.4736960860175e-51
1.2255665880791e-51
0
1.4416807720225e-52
1.0813985108769e-51
1.4416807720227e-52
0
3.174357145623e-52
0
5.7764363569993e-53
2.5967135099239e-52
8.8718834231641e-53
0
1.6137609389579e-53
7.2581224842477e-53
2.9342858873356e-54
1.3203323502957e-53
4.057444382247e-54
0
7.3773012421035e-55
3.3197142615262e-54
9.4129146804246e-55
0
1.5351548390616e-55
7.8777599738079e-55
1.5351550320489e-55
0
4.1976223219488e-55
0
4.1976227492719e-55
0
4.4884804298596e-55
0
7.6363439077903e-56
3.7248465557453e-55
1.3885830742873e-56
6.2477658251308e-56
1.6703434917563e-56
0
1.6703688412891e-56
0
5.5239930202317e-58
1.615133288971e-56
5.5244202714048e-58
0
3.4171261222146e-59
5.1829252503991e-58
3.4183711313005e-59
0
3.9148461335341e-59
0
4.5696755913088e-59
0
4.5696954166778e-59
0
4.5689419235664e-59
0
4.5798599662928e-59
0
1.0091527948009e-60
4.4789448935182e-59
9.9184809938075e-61
0
9.3462089682469e-61
0
8.2620891342704e-62
8.5200002571594e-61
8.2620895258966e-62
0
5.2867568597638e-62
0
3.1718394387088e-62
2.4892061111444e-62
2.3574501511552e-62
6.2230152778611e-63
9.5244811572556e-63
1.2446030555722e-62
5.7410142250034e-63
2.3336307291979e-63
2.3950631738595e-63
2.333630729198e-63
1.4036731326903e-63
8.2649421659093e-64
1.2154326714573e-63
0
0
0
0
0
0
0
0
0
0
0
0
0
0
8.6924947367409e-76
4.3497046733208e-76
1.3690141192834e-73
6.8860961770077e-74
1.0610357361015e-71
5.3681828086266e-72
5.4049026224374e-70
2.7515785313704e-70
2.0390363802551e-68
1.0447658395536e-68
6.0868500609148e-67
3.1394616401751e-67
1.4992947290945e-65
7.7853168415626e-66
3.1341495484119e-64
1.6387188569305e-64
5.668950911146e-63
2.9852024171075e-63
8.9960923799661e-62
4.7721994976965e-62
1.2661492828899e-60
6.7677105307556e-61
1.5960723514908e-59
8.5971045160112e-60
1.820346337439e-58
9.8799974371463e-59
1.8995078967046e-57
1.0384568325959e-57
1.8357502788812e-56
1.0102553822146e-56
1.6635983194324e-55
9.2086287332424e-56
1.4293049068386e-54
7.952036526619e-55
1.1735549507591e-53
6.5592071975561e-54
9.2453520937891e-53
5.1905691660801e-53
6.9907199009762e-52
3.9433420811886e-52
5.0624182568463e-51
2.8705992367811e-51
3.4997721649894e-50
1.9962009736692e-50
2.3025251086321e-49
1.3219274229816e-49
1.4380499750033e-48
8.3154850650627e-49
8.5119563447247e-48
4.9601606155235e-48
4.770680449019e-47
2.8029208349937e-47
2.5310186314429e-46
1.499940622514e-46
1.2712396569558e-45
7.6018043639524e-46
6.0471523595928e-45
3.6500343236625e-45
2.7259214390928e-44
1.6613125038879e-44
1.1652021210153e-43
7.1723152402644e-44
4.7262533366824e-43
2.9391342440932e-43
1.8203855272736e-42
1.1440176861507e-42
6.6624559709908e-42
4.2324648666266e-42
2.3185128875492e-41
1.4892999216672e-41
7.6762890770659e-41
4.9872796206718e-41
2.419380900277e-40
1.5903221183616e-40
7.2626520499194e-40
4.8314345899979e-40
2.0774714896166e-39
1.3991052366099e-39
5.6652674163091e-39
3.8637343782958e-39
1.4734531469086e-38
1.0179678952669e-38
3.656444325702e-38
2.5598158169244e-38
8.6607993424325e-38
6.1461334576802e-38
1.9588360823966e-37
1.4095465496509e-37
4.2319278671045e-37
3.0888815548694e-37
8.7362706335054e-37
6.4702123593502e-37
1.7237962829852e-36
1.2958767142953e-36
3.2516194185727e-36
2.4821868033652e-36
5.8637998176759e-36
4.5474783119775e-36
1.0107133339955e-35
7.9674820793409e-36
1.6641531018969e-35
1.3344535799393e-35
2.6145168809942e-35
2.1347225994565e-35
3.9121511325008e-35
3.2567754945687e-35
5.5581585063299e-35
4.727335610613e-35
7.4515695535993e-35
6.5010586603185e-35
9.2889078605752e-35
8.3896174523337e-35
1.0488914969371e-34
9.9516123698828e-35
1.0774981619337e-34
1.0660741027097e-34
1.0783517894126e-34
1.0732885048462e-34
1.0538182064952e-34
1.059444443557e-34
9.8976313255233e-35
1.0150756546348e-34
8.7173416706185e-35
9.2329079126614e-35
7.0750566941288e-35
7.8248538916523e-35
5.1894167766915e-35
6.0666770291005e-35
3.3676262186501e-35
4.2212350676116e-35
1.8890841281417e-35
2.5814672432005e-35
8.9706475382215e-36
1.3589365734763e-35
3.578129488042e-36
6.070959078171e-36
1.2223434793132e-36
2.3095976140464e-36
3.7572342904592e-37
7.7057117139595e-37
1.1014473429669e-37
2.3666728686829e-37
3.2046404936744e-38
7.0086285751872e-38
9.3908551195903e-39
2.0587599653185e-38
2.7719564716144e-39
6.0629405177591e-39
8.2125895615508e-40
1.7921957916006e-39
2.4366985046635e-40
5.3100956482995e-40
7.2375439309456e-41
1.5755534796591e-40
2.1533521461185e-41
4.6816758864068e-41
6.4219548153474e-42
1.3939167120369e-41
1.9202276646651e-42
4.1603434602817e-42
5.7548295371374e-43
1.2447690778022e-42
1.7272779066677e-43
3.7317847129103e-43
5.1864625770449e-44
1.1200667719532e-43
1.5561343469756e-44
3.3620507379324e-44
4.6602060547523e-45
1.0081104439603e-44
1.3916599890201e-45
3.0164872105561e-45
4.1409571253923e-46
8.9992115202051e-46
1.2271776865257e-46
2.6748122384938e-46
3.6180994640902e-47
7.9197336933408e-47
1.0664701591357e-47
2.3283653201661e-47
3.0228189706656e-48
6.9404049834488e-48
1.0877264360384e-48
1.7726640132599e-48
9.6964430914745e-49
0
0
0
0
0
0
0
0
0
0
0
0
7.7303484771978e-76
3.8601467325026e-76
1.8336390782373e-73
9.15512132646e-74
1.9242871625974e-71
9.6330239729629e-72
1.2523204731429e-69
6.2946849628755e-70
5.8115328693318e-68
2.9355946595532e-68
2.076535801484e-66
1.0547275839358e-66
5.9993402146503e-65
3.0652789116926e-65
1.4491662645065e-63
7.4504352263653e-64
2.9962681021905e-62
1.5504588614871e-62
5.3935822833541e-61
2.8098955325486e-61
8.5636353738999e-60
4.4928225555016e-60
1.2119184204092e-58
6.404621656512e-59
1.5418956323129e-57
8.2098699736623e-58
1.7767470745174e-56
9.5332130038538e-57
1.8681057136387e-55
1.010046708949e-55
1.8076278796702e-54
9.8456124666352e-55
1.6261707454008e-53
8.9170726685526e-54
1.3750778133213e-52
7.584880253989e-53
1.103922904648e-51
6.1204594011234e-52
8.4764679549391e-51
4.7212408001892e-51
6.2503712393858e-50
3.49683878075e-50
4.4302234381253e-49
2.4900369514984e-49
3.0147479520115e-48
1.703057868161e-48
1.9649868752446e-47
1.1163093644627e-47
1.2234339090458e-46
6.994008775802e-47
7.258090726007e-46
4.1779835654532e-46
4.0944465176367e-45
2.3746882705889e-45
2.1930699148292e-44
1.2822790998556e-44
1.1142532546089e-43
6.5714964778723e-44
5.3676155450302e-43
3.1946491504805e-43
2.4512935724445e-42
1.4729584776745e-42
1.0614303209824e-41
6.4419218311655e-42
4.3592740450411e-41
2.6731822606229e-41
1.6988587341825e-40
1.0529625629948e-40
6.2855527992994e-40
3.9389723417436e-40
2.2090754634137e-39
1.4001352394231e-39
7.3790965750012e-39
4.7316630748207e-39
2.3440629163102e-38
1.5211008936405e-38
7.085309351391e-38
4.6542392582259e-38
2.0390345598262e-37
1.3562342388228e-37
5.5901368003234e-37
3.765895046281e-37
1.4608653217643e-36
9.970208801032e-37
3.641189672222e-36
2.5182427836233e-36
8.6609709481837e-36
6.0714994526709e-36
1.9669901100101e-35
1.3980723622393e-35
4.2671289755902e-35
3.0760878529952e-35
8.845124559231e-35
6.469342728021e-35
1.7522105875377e-34
1.3008233291883e-34
3.3174260898113e-34
2.5010332024019e-34
6.0020579885473e-34
4.5977524943344e-34
1.0374191355409e-33
8.0798630788644e-34
1.7120842359146e-33
1.3567694574654e-33
2.6952940142346e-33
2.1753220864505e-33
4.0412652740226e-33
3.3259252304761e-33
5.7554141927678e-33
4.8391458057521e-33
7.7428643818676e-33
6.6748494793965e-33
9.7131218682277e-33
8.6557020323353e-33
1.108208098515e-32
1.0356234311327e-32
1.1467890893041e-32
1.1205353590604e-32
1.1483149844233e-32
1.1320232161027e-32
1.1275025734423e-32
1.1205521327461e-32
1.0660181784591e-32
1.079307804603e-32
9.4839083983965e-33
9.8997383595988e-33
7.802435597536e-33
8.4883180212135e-33
5.8248753161404e-33
6.682267875608e-33
3.8676201939776e-33
4.7420789453286e-33
2.234416333345e-33
2.9740979694475e-33
1.1006337540068e-33
1.6160358973135e-33
4.5785584168681e-34
7.4973963341331e-34
1.6312503840372e-34
2.9709887475684e-34
5.1939192913649e-35
1.0299364472003e-34
1.5618622424529e-35
3.2632087990757e-35
4.6271053803191e-36
9.8905856873138e-36
1.3762191265789e-36
2.9577894170501e-36
4.1214425941533e-37
8.8474761425785e-37
1.2397829806409e-37
2.6554994685394e-37
3.7383344198302e-38
7.993039641594e-38
1.1293813542315e-38
2.4111138450233e-38
3.4201184711886e-39
7.2892417532565e-39
1.0387659295419e-39
2.2095273420867e-39
3.1644755299092e-40
6.7174171157828e-40
9.663823006882e-41
2.04793958359e-40
2.9551771075095e-41
6.2564777711764e-41
9.0364562198574e-42
1.913106641292e-41
2.7590804152086e-42
5.8472276661769e-42
8.4007821807915e-43
1.783899529197e-42
2.5481043832571e-43
5.4260313028589e-43
7.6935590285771e-44
1.6439211065262e-43
2.3113988950411e-44
4.9573254840819e-44
6.9026179447354e-45
1.4878386963413e-44
2.0595014109462e-45
4.429848905622e-45
5.9009183431645e-46
1.3370377827554e-45
2.1538885500997e-46
3.4401786685229e-46
1.9212847460305e-46
0
0
0
0
0
0
0
0
0
0
3.5963036455543e-76
1.7897402423031e-76
1.1346222463057e-73
5.6347301244038e-74
1.5476373368965e-71
7.685532509571e-72
1.2623544914838e-69
6.2799921503972e-70
7.1364074075346e-68
3.5611693902516e-68
3.0386195391269e-66
1.5224165835797e-66
1.0276011541502e-64
5.1728100259923e-65
2.8643469695012e-63
1.4494310604608e-63
6.7597234169966e-62
3.4399474477147e-62
1.37739188702e-60
7.0516362092543e-61
2.4595804565489e-59
1.2672076437916e-59
3.8946825768663e-58
2.0199893761985e-58
5.5205918072829e-57
2.8832538414794e-57
7.0593496806652e-56
3.7136713905497e-56
8.1978029102725e-55
4.3449615536583e-55
8.697409025168e-54
4.6452536574599e-54
8.4790431814268e-53
4.5637059050621e-53
7.6451828598511e-52
4.1457878262727e-52
6.42975280202e-51
3.51060947284e-51
5.0976489035218e-50
2.7996360800031e-50
3.8509741076466e-49
2.1252982625304e-49
2.7935238155492e-48
1.548374422209e-48
1.9515951747591e-47
1.0864676081119e-47
1.3115717455529e-46
7.3379550208411e-47
8.4537606103926e-46
4.7571194186514e-46
5.2101591647409e-45
2.9512891019165e-45
3.0636604176407e-44
1.7481409269462e-44
1.7164591960696e-43
9.8718925566331e-44
9.1556171722377e-43
5.3100976790385e-43
4.6470771019166e-42
2.7191667047688e-42
2.2435217276891e-41
1.3249770655639e-41
1.0298461664466e-40
6.1411312804068e-41
4.4931407443642e-40
2.7064364197805e-40
1.8626203682733e-39
1.133749191969e-39
7.3346765905147e-39
4.5132658904244e-39
2.7430581189782e-38
1.7070013772982e-38
9.741675370122e-38
6.1332619609689e-38
3.2851696916457e-37
2.093351267558e-37
1.0520211813141e-36
6.7873174001054e-37
3.1995677371952e-36
2.0907874005211e-36
9.2440902362494e-36
6.1202828662018e-36
2.5380991389837e-35
1.7030643859348e-35
6.6261992938358e-35
4.507168328005e-35
1.6461267952355e-34
1.1352404459686e-34
3.8953193528506e-34
2.7238321130159e-34
8.7913435569063e-34
6.2328546818394e-34
1.8951820972831e-33
1.3621247198659e-33
3.9087191964764e-33
2.8474054597581e-33
7.7245974185997e-33
5.7024865403952e-33
1.4644923105437e-32
1.0955577312249e-32
2.6649578359346e-32
2.0207101520305e-32
4.6529121354627e-32
3.578296045065e-32
7.784446521183e-32
6.0782146653936e-32
1.2453209663381e-31
9.8870174195341e-32
1.8996254245583e-31
1.5363672588441e-31
2.7530174202541e-31
2.2735710929426e-31
3.7694672012462e-31
3.1902328658643e-31
4.8207086232946e-31
4.2119007764422e-31
5.6262797096072e-31
5.1457416190781e-31
5.9183921947254e-31
5.6867534732747e-31
5.9368001592063e-31
5.7944315012892e-31
5.8627722488147e-31
5.7547096668461e-31
5.5932641258942e-31
5.5822233756995e-31
5.0380462344078e-31
5.1747254938448e-31
4.2100319101319e-31
4.4987097787269e-31
3.2036329067236e-31
3.6023727457941e-31
2.1778407164742e-31
2.6101758522777e-31
1.2953981185939e-31
1.6793294753862e-31
6.6109475984164e-32
9.4131004771888e-32
2.8636239031717e-32
4.5295070510548e-32
1.0630393334666e-32
1.867337330159e-32
3.5073671345626e-33
6.7234782333295e-33
1.0832157310652e-33
2.1988814080734e-33
3.2714406325261e-34
6.8282820278583e-34
9.8824850557028e-35
2.0806882730762e-34
3.0035586403576e-35
6.3250011364323e-35
9.1748284440359e-36
1.9281102868696e-35
2.8120241272071e-36
5.897021029012e-36
8.6434772311721e-37
1.8089362487189e-36
2.6654238579926e-37
5.566059647919e-37
8.2494527026474e-38
1.7185799252254e-37
2.562133417001e-38
5.3254376898245e-38
7.9784513652013e-39
1.6554798435324e-38
2.487364805665e-39
5.1572593678804e-39
7.7499159385525e-40
1.6076052807468e-39
2.4089777105773e-40
5.0056635023671e-40
7.4594099043027e-41
1.5543949737488e-40
2.2984643926425e-41
4.8072580984243e-41
7.0423414808353e-42
1.4792760526831e-41
2.1448981875854e-42
4.5260072192497e-42
6.4878151655772e-43
1.3769375471112e-42
1.9593375298442e-43
4.1516962872174e-43
5.6745542337579e-44
1.2687943537795e-43
2.1013439289132e-44
3.2879379811531e-44
1.8753733716651e-44
0
0
0
0
0
0
0
0
0
0
2.8755247537778e-74
1.4138130001494e-74
6.5444836830079e-72
3.2189518068426e-72
7.1911082322643e-70
3.5410238023862e-70
5.075939718347e-68
2.5046134762738e-68
2.5972512213874e-66
1.2852550574335e-66
1.0310010637166e-64
5.120327123881e-65
3.3171367240402e-63
1.6543493637875e-63
8.9239060201429e-62
4.4715952725974e-62
2.0538388785774e-60
1.0344457579318e-60
4.1134237788097e-59
2.0832953474285e-59
7.2651938148375e-58
3.7013588054308e-58
1.143714527823e-56
5.8634114666442e-57
1.6184724849929e-55
8.352263555086e-56
2.0732024770288e-54
1.0773183425921e-54
2.4188958877779e-53
1.2660424280086e-53
2.5842329787639e-52
1.3627310204812e-52
2.539434898488e-51
1.34947335133e-51
2.3054747098492e-50
1.2347438600952e-50
1.9443454457752e-49
1.0492576164518e-49
1.5349061741219e-48
8.3400999584318e-49
1.1459772592567e-47
6.2621461685179e-48
8.1886454152833e-47
4.4940846528032e-47
5.6572917172358e-46
3.115729957984e-46
3.7993277682479e-45
2.1000435126581e-45
2.4807395124817e-44
1.3775256717832e-44
1.5699812564359e-43
8.7703267879986e-44
9.5906644548975e-43
5.3970573333977e-43
5.6321760467754e-42
3.1962292408929e-42
3.1678755822829e-41
1.8143856986801e-41
1.7009615722056e-40
9.838263541575e-41
8.694117805533e-40
5.0807301501925e-40
4.2203867283274e-39
2.4929779192933e-39
1.9421806754993e-38
1.1601070207502e-38
8.4616910696902e-38
5.1130467447912e-38
3.4869332916001e-37
2.132321813505e-37
1.3582044181199e-36
8.4088721819062e-37
4.9983199863835e-36
3.1343359461326e-36
1.7372933064949e-35
1.1039277255112e-35
5.7014576730374e-35
3.6729191193634e-35
1.766174499644e-34
1.1541078911211e-34
5.1626259817752e-34
3.4238830826387e-34
1.4234147337711e-33
9.5869540630276e-34
3.7003555626805e-33
2.5326194680594e-33
9.0669814965652e-33
6.3101404505378e-33
2.0938226330453e-32
1.4825428126972e-32
4.5585245289776e-32
3.2850960416232e-32
9.3671673445703e-32
6.8709133283294e-32
1.8209322776763e-31
1.358921085388e-31
3.3614413892419e-31
2.5495115965277e-31
5.9236638225717e-31
4.5583897068294e-31
1.0027156002551e-30
7.8121047805852e-31
1.6401144364623e-30
1.2910590236479e-30
2.6032140277468e-30
2.0676890484236e-30
4.0141783021493e-30
3.2170334889641e-30
5.9991321729634e-30
4.8585112187734e-30
8.6399408534632e-30
7.0933260539592e-30
1.1888719265213e-29
9.9424889219132e-30
1.5425046854652e-29
1.3245517653693e-29
1.8428954048134e-29
1.648252670446e-29
1.9822561409845e-29
1.8663562330223e-29
1.9961164065019e-29
1.9281347929577e-29
1.9830068840725e-29
1.9211337903258e-29
1.9097024205897e-29
1.877384301493e-29
1.7428082133305e-29
1.7600028920825e-29
1.4807763323228e-29
1.5528155551693e-29
1.1494501628174e-29
1.2659296344456e-29
8.0028461240004e-30
9.3710699532269e-30
4.8993343963841e-30
6.1854814744915e-30
2.5877963130435e-30
3.574619017488e-30
1.1655727416643e-30
1.7820994348131e-30
4.503960078981e-31
7.6347196585232e-31
1.5401096652849e-31
2.8537640142184e-31
4.8902733764948e-32
9.6381225998767e-32
1.5073867594739e-32
3.0693844358267e-32
4.6286364406152e-33
9.5388685901154e-33
1.4283303458588e-33
2.9487148901611e-33
4.4318200790088e-34
9.133358365264e-34
1.3810934264511e-34
2.8392976819146e-34
4.3209547210412e-35
8.8602935808454e-35
1.3576207849003e-35
2.7761533711788e-35
4.2846953368755e-36
8.7365236586214e-36
1.357764945145e-36
2.7613597014475e-36
4.3147158292989e-37
8.759635301552e-37
1.3723831987355e-37
2.7848331036811e-37
4.3595509122061e-38
8.8555009612284e-38
1.3802235653889e-38
2.810702483699e-38
4.3478558956293e-39
8.8874805186991e-39
1.361214607293e-39
2.7955197419478e-39
4.2326923573958e-40
8.7385780275439e-40
1.3069654787206e-40
2.7129597217384e-40
4.0041534131821e-41
8.3665708583935e-41
1.2240022761941e-41
2.5546883593904e-41
3.5830571080435e-42
7.9053620401925e-42
1.346410791003e-42
2.0627535705905e-42
1.2021047233275e-42
0
0
0
0
0
0
0
0
8.6981658673909e-85
4.303810199242e-85
1.1164384774105e-72
5.4186598937921e-73
2.2250499255777e-70
1.0819833776731e-70
2.1917596224861e-68
1.0681341168532e-68
1.41816972108e-66
6.929535701221e-67
6.7748521957596e-65
3.3206458627749e-65
2.5482299748973e-63
1.2534600038194e-63
7.8611219245125e-62
3.8823572198203e-62
2.0471172697562e-60
1.0154694508502e-60
4.5956293609597e-59
2.2905921982886e-59
9.0347442552595e-58
4.5264287618777e-58
1.5749521486141e-56
7.934144169623e-57
2.4584080784459e-55
1.2457603421845e-55
3.4632088476544e-54
1.7658746103751e-54
4.4317156180766e-53
2.2745963916266e-53
5.180334732697e-52
2.6772104888894e-52
5.5578910944283e-51
2.893067148051e-51
5.4959571246982e-50
2.8823283335602e-50
5.0275916890849e-49
2.6572674961778e-49
4.2684388208636e-48
2.2740304683102e-48
3.3767289614516e-47
1.8129341062145e-47
2.5071969681538e-46
1.3552003907198e-46
1.7697356846734e-45
9.6124732265457e-46
1.208926897575e-44
6.5837804114343e-45
8.1374985165953e-44
4.4371678857343e-44
5.4602097811243e-43
2.9818375326114e-43
3.6576962788904e-42
2.0039844289347e-42
2.4283877448785e-41
1.3377856918699e-41
1.5788351543338e-40
8.762873632064e-41
9.9263525844665e-40
5.558926140787e-40
5.9703741287234e-39
3.3772697159463e-39
3.4076429866167e-38
1.948646033488e-38
1.8353337324273e-37
1.0616688613412e-37
9.2940334906963e-37
5.4414620812951e-37
4.415209670803e-36
2.6177245530532e-36
1.9651826083597e-35
1.1804678312696e-35
8.1899064204952e-35
4.98686599284e-35
3.194942380596e-34
1.9730441924865e-34
1.1665891772338e-33
7.3107116032387e-34
3.9868267491091e-33
2.5368828830464e-33
1.2751630010526e-32
8.2443569990558e-33
3.8166633070336e-32
2.5090254133204e-32
1.06879714224e-31
7.149706372243e-32
2.7993231160435e-31
1.9072029831581e-31
6.8534574507179e-31
4.7603175427015e-31
1.56696799942e-30
1.1108935103275e-30
3.3411180238093e-30
2.4209350633799e-30
6.631422500612e-30