/*--------------------------------*- C++ -*----------------------------------*\
  =========                 |
  \\      /  F ield         | OpenFOAM: The Open Source CFD Toolbox
   \\    /   O peration     | Website:  https://openfoam.org
    \\  /    A nd           | Version:  7
     \\/     M anipulation  |
\*---------------------------------------------------------------------------*/
FoamFile
{
    version     2.0;
    format      ascii;
    class       volScalarField;
    location    "3.5";
    object      alpha.water;
}
// * * * * * * * * * * * * * * * * * * * * * * * * * * * * * * * * * * * * * //

dimensions      [0 0 0 0 0 0 0];

internalField   nonuniform List<scalar> 
6000
(
0
0
0
0
0
0
0
0
0
0
0
0
0
0
0
0
0
0
0
0
0
0
0
0
0
0
0
0
0
0
0
0
0
0
0
0
0
0
0
0
0
0
0
0
0
0
0
0
0
0
0
0
0
0
0
0
0
0
0
0
0
0
0
0
0
0
0
0
0
0
0
0
0
0
0
0
0
0
0
0
0
0
0
0
0
0
0
0
0
0
0
0
0
0
0
0
0
0
0
0
0
0
0
0
0
0
0
0
0
0
0
0
0
0
0
0
0
0
0
3.115585792677e-213
2.3711640115049e-212
9.6827623922012e-212
2.7915778044004e-211
3.6929838138956e-221
1.3763840470649e-192
4.8890903394261e-192
9.9614326667431e-204
1.6099161235563e-204
7.025139861714e-204
1.1620120490215e-191
5.7114310500317e-191
2.3320744386949e-203
1.1568396405304e-191
4.418642346282e-191
1.4803543318793e-190
4.7338531528707e-190
7.2481441684795e-203
2.7501982668816e-203
4.6480277147763e-191
1.2687011183992e-190
6.343505591073e-191
6.8776856119239e-191
1.9986691749281e-232
9.9180117910057e-192
4.6721226333271e-208
3.5948509389663e-192
8.1241533996678e-192
1.557374211109e-208
2.6937920356921e-192
7.7868710555451e-209
8.0461549542838e-193
1.2325124335739e-192
3.8934355277725e-209
3.3341009809755e-193
3.8934355277725e-209
8.5168902170024e-210
1.6257058739082e-194
1.5208732530361e-209
4.2770926705942e-195
1.9010463102506e-203
1.0428359524781e-195
1.9160816733172e-207
1.3175074826012e-196
5.1262696456164e-208
1.8556388855701e-197
3.3738890044069e-198
2.3804386371959e-207
1.4297421307746e-198
2.0181315235225e-198
1.2646878715338e-198
1.5711396834237e-198
1.4244599306044e-204
3.162304707405e-199
9.411108608161e-206
3.5953006174419e-200
2.1222268262679e-205
7.7597703078213e-201
7.7107500270226e-201
1.1852704945784e-202
1.4108383965612e-201
1.6704888342324e-203
2.5060995871545e-202
1.4175351247633e-202
1.4894981592248e-202
1.454845238464e-202
5.4830079475825e-203
8.0059683511032e-203
4.898596747016e-203
5.4369783083461e-203
3.1020037944444e-203
1.955619162443e-203
1.8823276394346e-203
9.9342010995737e-204
8.8618965221313e-204
4.4665304987836e-204
3.7207085319344e-204
2.6565403622506e-204
1.2974192056799e-204
9.8850954268652e-205
8.9968540519863e-205
0
0
0
0
0
0
0
0
0
0
0
0
0
0
0
0
0
0
0
4.2744498282995e-158
2.349937632012e-154
4.2340452119198e-164
1.3821042435282e-143
1.2978009979566e-127
1.6590774116634e-126
2.5774254798077e-233
1.0330045667481e-125
2.657537941304e-127
-7.7698966828845e-136
9.4576585283629e-127
1.6701453113291e-126
8.9698598332064e-126
0
7.1004239950819e-127
1.7247943896439e-126
2.8275130291632e-126
6.8538809988721e-125
0
9.735306220456e-127
2.8432388894307e-123
-6.231409816714e-128
9.583394267925e-122
3.2315612053594e-121
5.7276346341725e-122
1.392378228381e-122
4.8724991817754e-233
6.3440682391404e-122
7.1580803822136e-122
7.6533363874791e-122
5.8854696816474e-122
2.5440523730647e-122
3.8004772399908e-122
3.6870675399511e-122
3.7762300434715e-122
3.9816637245638e-122
5.4124313494084e-123
8.9862497836458e-123
2.5402667619928e-123
3.3925247072735e-127
-8.4019579339102e-141
1.0766882091839e-128
1.9026403327895e-125
0
9.2270329778591e-128
-1.640106471574e-143
0
2.0624169272532e-128
-2.6227288546899e-145
3.4151433359432e-133
7.9516327618259e-147
1.4365770757127e-132
0
4.9904364406966e-131
3.434625366946e-135
0
1.9093352271873e-150
1.1425876594469e-133
1.0829214849606e-137
0
1.0559854285068e-136
0
8.2106512767289e-137
9.7704263578725e-154
1.526543240336e-141
1.8322876689856e-138
1.4738074864321e-138
7.2745842056438e-139
0
1.1579696712795e-143
1.2601463412459e-140
0
1.1050357368638e-141
1.4908487484547e-158
1.7885432158276e-143
2.0421042538723e-143
1.3325023395561e-143
5.7752190719641e-144
0
3.5543892088304e-146
2.5849491260159e-145
0
0
0
0
0
0
0
0
0
0
0
0
0
0
0
0
0
-4.4340440590126e-96
-1.1861285946477e-94
-1.8250468823885e-93
-2.000211402678e-92
-1.6632669541133e-91
-1.1050665523849e-90
1.9136716418669e-79
6.8422813428663e-79
5.9174178562724e-78
4.3949097395998e-79
-1.2141134955841e-87
-3.0500631783978e-91
5.9574788534674e-84
-9.6993158489975e-90
2.3957015721277e-98
1.3715848695386e-100
-1.7859177988786e-100
5.0364230770591e-88
1.3634045953758e-72
2.9999185964969e-70
1.6277286718421e-69
6.1109289617081e-69
7.2306995557756e-69
1.4573753648435e-70
-6.9212843905203e-75
-3.2926271690445e-87
-8.0734321373638e-73
1.0289459903264e-88
1.1082524798968e-69
1.3102183646398e-68
2.6593669977608e-68
2.9884206496648e-68
0
2.5134558542325e-86
2.1462659411181e-68
3.0422862630268e-70
-1.8103519308556e-77
0
0
3.4292454510964e-65
1.232092984213e-66
1.4304010633213e-64
3.2860433484887e-64
7.5707122993861e-64
2.2920807806648e-63
4.6971513827594e-63
1.2140953825966e-62
2.5466941797773e-62
4.9274018052253e-62
1.1891914841769e-61
2.1990560908978e-61
4.786815767919e-61
8.7179609259059e-61
1.4012543974615e-60
2.5708868951354e-60
3.2798941422584e-60
4.412650717821e-60
4.3790340019496e-60
4.2685311656602e-60
4.5189588765103e-60
4.2853639477353e-60
3.9410445940342e-60
3.365198170351e-60
2.5321824457238e-60
1.5125235039189e-60
6.775965466923e-61
2.0009672771857e-61
2.0043568298707e-62
3.9485678068802e-63
2.7819435384945e-64
4.2145141392364e-65
2.4126944977696e-65
8.8878124753051e-66
5.6880888978459e-67
7.9873212627261e-68
4.5376757956002e-68
1.5709829340786e-68
4.5512248661705e-69
1.2136137939986e-69
3.1220411115698e-70
8.0872299210827e-71
1.7289520166754e-71
8.6714726538791e-72
0
0
0
0
0
0
0
0
0
4.6746384289588e-83
4.3809160850408e-81
2.0246842063121e-79
7.0537786425502e-78
1.632137695987e-76
2.9385272005312e-75
5.3580436914724e-74
7.912517417482e-73
1.3602676887657e-71
1.933414608855e-70
1.9958750379881e-69
2.2291471427626e-68
2.2645912138298e-67
2.2961604641505e-66
1.723503785087e-65
1.1396171390702e-64
8.4291454242667e-64
8.4191291580429e-63
6.3814579583433e-62
3.2596306364193e-61
3.2258278265987e-61
5.1108343960233e-60
6.2958092886519e-60
1.8836450708316e-61
1.5063236450114e-58
1.9039559496596e-59
1.1846659681582e-57
2.050586902363e-56
4.9449972253758e-56
3.6801094262498e-55
2.0951622334745e-54
6.7811628471872e-54
2.7935397435676e-53
4.1752820380548e-53
2.5488463447843e-54
7.8355921672613e-54
8.3227437142562e-55
7.0968759668246e-55
2.7389354157866e-68
1.9021939211143e-54
8.7403880725579e-51
8.2116010169912e-51
4.3725742861769e-51
0
2.6234317761067e-49
6.4853689430546e-49
-1.5192908393216e-65
4.120789916446e-49
7.5964541966079e-66
2.5665242691331e-49
3.5606895364139e-64
6.5709328800659e-64
7.6777353575727e-50
5.1000339755344e-63
1.9973160664383e-50
2.7554959322279e-62
4.4176051781704e-62
9.1294948143683e-52
2.3790543566299e-61
1.965638516658e-52
9.3767140655415e-61
1.3196902260883e-60
5.8873824285904e-52
3.5024894929901e-60
9.409610560234e-53
4.6784774747957e-60
4.5695668401749e-60
2.441878619685e-53
1.886013412658e-57
4.1710033428956e-60
6.7127033093021e-59
2.3092672865638e-60
1.6340387051328e-60
8.4559480111798e-57
9.7513102385961e-57
4.2837499435613e-62
6.7724233118919e-56
2.1044219400143e-58
2.9791485049904e-64
1.3330044300755e-58
1.6090963820794e-58
3.0179030542148e-66
5.6668795045682e-67
2.7625242764473e-59
8.9669331861883e-60
4.1861247095986e-60
4.1980806613643e-60
9.8576789895526e-61
8.7759049863251e-61
2.657200252167e-61
2.7614514571618e-61
0
0
0
0
0
0
0
8.21610900832e-74
1.3014873600524e-71
1.0147306414674e-69
5.2007096631674e-68
1.9742673798337e-66
5.9309369396242e-65
1.4703287483243e-63
3.093920928528e-62
5.6343673928103e-61
9.0044638959467e-60
1.2765914639697e-58
1.6212168735858e-57
1.862691000794e-56
1.9574631169847e-55
1.9041048453938e-54
1.7355797220287e-53
1.4988192413841e-52
1.2364213717413e-51
9.785596536342e-51
7.4352868896689e-50
5.4133243643841e-49
3.7648520786527e-48
2.493429955926e-47
1.5686243127023e-46
9.3576832923707e-46
5.2884476294096e-45
2.8303726777747e-44
1.4346604709409e-43
6.8897833098036e-43
3.1365431831379e-42
1.3544626726556e-41
5.5520326270993e-41
2.1617616651079e-40
8.0007109407577e-40
2.8164045386469e-39
9.4356402129843e-39
3.0102606168162e-38
9.1500236017813e-38
2.6511747748743e-37
7.3257248766361e-37
1.9312779562248e-36
4.8595609297133e-36
1.167551959429e-35
2.6794508451002e-35
5.8757577012428e-35
1.231627886984e-34
2.4684444216295e-34
4.7314221863207e-34
8.6740770070242e-34
1.520779520028e-33
2.5488133364431e-33
4.080021579215e-33
6.2286262293648e-33
9.0469700877535e-33
1.2450109472112e-32
1.6082695261171e-32
1.9108245691834e-32
2.0470739822104e-32
2.0522065959313e-32
2.0246335550214e-32
1.939760394793e-32
1.7645263981949e-32
1.4940446912752e-32
1.1555796546446e-32
8.0030049612597e-33
4.8515098854421e-33
2.5134467784637e-33
1.0918428151089e-33
3.9727056038225e-34
1.2491096305455e-34
3.6098481065101e-35
1.0217171191298e-35
2.9322799016306e-36
8.5725703240822e-37
2.5334319813581e-37
7.5168403840109e-38
2.2331667779711e-38
6.6434723506142e-39
1.9808086340143e-39
5.9224948295347e-40
1.7754782600644e-40
5.3324968589738e-41
1.6026308173247e-41
4.8133434944292e-42
1.4428593464722e-42
4.3122491144336e-43
1.2839222797328e-43
3.8057384878455e-44
1.1233743746239e-44
3.284945722933e-45
9.870508196428e-46
2.2678169690202e-46
1.4945755856512e-46
0
0
0
0
0
0
7.29904151557e-74
1.7384585069805e-71
1.8334307409085e-69
1.1996257766491e-67
5.598678921428e-66
2.0122944917719e-64
5.8490306696629e-63
1.4216551374589e-61
2.9582112403971e-60
5.3602551112222e-59
8.568752693393e-58
1.2211736975481e-56
1.5649312989268e-55
1.816655669206e-54
1.9242598344959e-53
1.8753820431031e-52
1.6984437751585e-51
1.4448640882842e-50
1.1661948307395e-49
8.9988621483601e-49
6.6674486301498e-48
4.7493314762584e-47
3.2492491109908e-46
2.130352975656e-45
1.3350484298815e-44
7.9769054509511e-44
4.5348732568129e-43
2.449211478165e-42
1.2554182834715e-41
6.1041483216478e-41
2.8149492135424e-40
1.2313399214843e-39
5.11071943583e-39
2.013585180011e-38
7.5345969585206e-38
2.6790864538396e-37
9.0571673731891e-37
2.9128793037304e-36
8.9171121045175e-36
2.5998409591108e-35
7.223403017402e-35
1.9136522307966e-34
4.8368496526623e-34
1.1670369785767e-33
2.689393991616e-33
5.9219636677381e-33
1.2464301461216e-32
2.5081719189408e-32
4.8258352241005e-32
8.8774870473079e-32
1.5610440918905e-31
2.6227742360015e-31
4.2073028631882e-31
6.4358506001141e-31
9.368524105178e-31
1.2929114996587e-30
1.6778634668434e-30
2.0102556423983e-30
2.1756302085521e-30
2.1888478994411e-30
2.1649555721231e-30
2.0844778067359e-30
1.9124736756339e-30
1.6382355469754e-30
1.2867854989909e-30
9.0918087019715e-31
5.6565498498945e-31
3.0296763115596e-31
1.3709520981715e-31
5.2211330810472e-32
1.7149116678496e-32
5.1280823778232e-33
1.4843336599034e-33
4.3241819234356e-34
1.2806546759591e-34
3.8374347273641e-35
1.1562367260059e-35
3.4927643616656e-36
1.0574950576277e-36
3.2110315046582e-37
9.7817826476629e-38
2.9883280980068e-38
9.1453817017821e-39
2.7994984915497e-39
8.5577415912579e-40
2.6085664328573e-40
7.9196150596344e-41
2.3928581808518e-41
7.1907907163361e-42
2.1500621897647e-42
6.3630434081524e-43
1.9348560699713e-43
4.4740073969177e-44
3.0068099396934e-44
0
0
0
0
0
3.3938194074547e-74
1.0740003826984e-71
1.4707128456422e-69
1.205112032759e-67
6.8470911123721e-66
2.9310718860654e-64
9.9679842290265e-63
2.794650699216e-61
6.6348364843758e-60
1.3603221520269e-58
2.4446353524588e-57
3.8965708137262e-56
5.5609203529907e-55
7.1609413541209e-54
8.3759711107577e-53
8.9522520741633e-52
8.792777849869e-51
7.9862554759051e-50
6.7627051798962e-49
5.3942913562789e-48
4.0966572031823e-47
2.9860651801313e-46
2.0961770233629e-45
1.4161131047435e-44
9.1808217900644e-44
5.6947199115583e-43
3.3720041308188e-42
1.9033310647584e-41
1.0232750948052e-40
5.237152825921e-40
2.5506280389007e-39
1.1816502425217e-38
5.2056134719525e-38
2.18003221351e-37
8.6766397085359e-37
3.2813708561598e-36
1.1790225345943e-35
4.0246850001279e-35
1.3052646317216e-34
4.0222918390085e-34
1.1780191101851e-33
3.2800769414465e-33
8.6873012106206e-33
2.1900491680622e-32
5.2600302904715e-32
1.2050169503529e-31
2.6367906627283e-31
5.5196442134518e-31
1.1070623650711e-30
2.1301957724632e-30
3.9352712114628e-30
6.979336857933e-30
1.1872102371678e-29
1.9335088273952e-29
3.0074874423538e-29
4.4539693688861e-29
6.2534619659432e-29
8.2612748156169e-29
1.0103677624554e-28
1.1171955787268e-28
1.1339550430202e-28
1.1247631706408e-28
1.0898855836073e-28
1.0109562303729e-28
8.7798444834536e-29
7.0158356268851e-29
5.0626185109004e-29
3.2331809177415e-29
1.7887962958531e-29
8.4173352401595e-30
3.3489106685546e-30
1.1480046910782e-30
3.5547560910012e-31
1.0540567030621e-31
3.1214440800691e-32
9.3715804154174e-33
2.847950008804e-33
8.7149485360154e-34
2.6773915472867e-34
8.2531254172294e-35
2.5535112871012e-35
7.9306226145357e-36
2.4707167480179e-36
7.7099369032382e-37
2.4052730627477e-37
7.4871163746073e-38
2.3214993509156e-38
7.161159896338e-39
2.195943312129e-39
6.6904922024147e-40
2.0263901477423e-40
6.0693203519037e-41
1.8676779872116e-41
4.344900283311e-42
2.9795083825009e-42
0
0
0
0
0
2.7136947910341e-72
6.2005693099775e-70
6.8425570408057e-68
4.8524192620414e-66
2.4952081727687e-64
9.9567349026589e-63
3.2209382444513e-61
8.7140059676403e-60
2.0172194091839e-58
4.0643918207619e-57
7.2231568137748e-56
1.1443838235947e-54
1.6301449817594e-53
2.1024276281215e-52
2.4702667713164e-51
2.6582631156933e-50
2.6316587500313e-49
2.4072704754857e-48
2.0453029241719e-47
1.6258203828439e-46
1.2211914138014e-45
8.7693027403102e-45
6.0832053412325e-44
4.1007341688459e-43
2.6882119198807e-42
1.7090187098887e-41
1.0494772287482e-40
6.2000193569297e-40
3.5107990298858e-39
1.8992678798756e-38
9.7882013272088e-38
4.7944648510134e-37
2.2279331522033e-36
9.8083715437071e-36
4.0869898274908e-35
1.610765448098e-34
6.0018386967972e-34
2.1135675026324e-33
7.0325034631283e-33
2.2102956505242e-32
6.5600664003086e-32
1.8379545820188e-31
4.8592531260203e-31
1.2119018535065e-30
2.850704164092e-30
6.3256132700852e-30
1.3251901907373e-29
2.6258691676019e-29
4.9369957183346e-29
8.8483218398332e-29
1.5204789991031e-28
2.5201974003895e-28
4.0489037209405e-28
6.3197880970017e-28
9.5738306265784e-28
1.4015358328727e-27
1.9686934186434e-27
2.6269133662427e-27
3.273545489229e-27
3.7103545631418e-27
3.8215346440284e-27
3.8006696616138e-27
3.7065581011356e-27
3.4789298905907e-27
3.065740522105e-27
2.4945212287125e-27
1.8394167288985e-27
1.2058429774224e-27
6.8862302093412e-28
3.3646478823183e-28
1.396078528408e-28
4.9898545446305e-29
1.6007087645976e-29
4.8696411526741e-30
1.4680594431167e-30
4.4721181237383e-31
1.3788772678491e-31
4.2864533885671e-32
1.3397004209429e-32
4.2064414605845e-33
1.3269627851854e-33
4.2048024950662e-34
1.3369291851723e-34
4.2571650027767e-35
1.3544384023756e-35
4.2954888844976e-36
1.355331902881e-36
4.2489582054262e-37
1.3225405982172e-37
4.0856107627001e-38
1.2535164493532e-38
3.7997766596691e-39
1.1833717408397e-39
2.7686662147323e-40
1.9386516598649e-40
0
0
0
0
8.1956693187152e-83
1.0533468842072e-70
2.1087831775516e-68
2.0869424378025e-66
1.3569146220531e-64
6.5149653666073e-63
2.4633048209616e-61
7.6401935195758e-60
2.000646975263e-58
4.5170025636847e-57
8.9324403488612e-56
1.5665511335712e-54
2.4605670324961e-53
3.4885955493954e-52
4.4938995512234e-51
5.2890701186912e-50
5.7147069334255e-49
5.6922370293847e-48
5.2462744300212e-47
4.4883641403137e-46
3.5777695912113e-45
2.6749538635301e-44
1.8984815276472e-43
1.3012674260354e-42
8.7717003092549e-42
5.8882345323775e-41
3.9468271153958e-40
2.6249523755116e-39
1.7124336724821e-38
1.0821579309946e-37
6.5527017694691e-37
3.7704754783179e-36
2.0497481939934e-35
1.0487829182878e-34
5.0388548032134e-34
2.2701373858933e-33
9.583978429337e-33
3.7904234946266e-32
1.4042441107853e-31
4.8730897328937e-31
1.5840285569682e-30
4.8226821835641e-30
1.3750528968338e-29
3.6706453816666e-29
9.1698275207162e-29
2.1421248507754e-28
4.6738574022694e-28
9.5091401504745e-28
1.8007349587825e-27
3.1699551351567e-27
5.1910691098785e-27
7.9441667515035e-27
1.1474439547781e-26
1.5874701169494e-26
2.1384823963415e-26
2.8433432970699e-26
3.7567392503459e-26
4.9219845385762e-26
6.3248653876415e-26
7.8109344013178e-26
8.9803064678874e-26
9.4092158943201e-26
9.388759265483e-26
9.2141053295504e-26
8.7422689348683e-26
7.8232789004914e-26
6.4855535111574e-26
4.8897074668519e-26
3.291105621736e-26
1.9393267136058e-26
9.8305595704769e-27
4.2493546787021e-27
1.5826462685035e-27
5.2623494662505e-28
1.6446705232376e-28
5.0545191410845e-29
1.5637234690551e-29
4.8942466211718e-30
1.5461462367419e-30
4.9180381345468e-31
1.5737193044226e-31
5.0651098724859e-32
1.6388396062234e-32
5.3224532482265e-33
1.7308655379358e-33
5.6200911036482e-34
1.8170108526129e-34
5.8366325412499e-35
1.8601754749985e-35
5.8783430010433e-36
1.8414831640352e-36
5.7238060270714e-37
1.7560981640681e-37
5.5354761821815e-38
1.3019832597779e-38
9.3168343125016e-39
0
0
0
0
4.1984126248009e-81
2.6541226493864e-69
4.9584651567164e-67
4.6102555524379e-65
2.8383461202992e-63
1.3002227571776e-61
4.7235133980191e-60
1.4166170282444e-58
3.6071590396541e-57
7.9590349151235e-56
1.5450813135529e-54
2.6713072457587e-53
4.1520893715482e-52
5.8457108909312e-51
7.5026252579527e-50
8.8226238436905e-49
9.5465655490382e-48
9.544084356674e-47
8.8482108337855e-46
7.6258847650696e-45
6.1176945101959e-44
4.5791865185198e-43
3.2267127053208e-42
2.1855568853779e-41
1.4686188285983e-40
1.0084097899827e-39
7.1512871548625e-39
5.1698628105456e-38
3.7119358621909e-37
2.5802872649415e-36
1.7048245807602e-35
1.0588120383737e-34
6.145532347547e-34
3.3248047436847e-33
1.6752040741963e-32
7.8611312694735e-32
3.4373595082638e-31
1.4014107164306e-30
5.3307543488267e-30
1.8929782957536e-29
6.2781123069994e-29
1.9452115810373e-28
5.6315501191808e-28
1.5233379597763e-27
3.84864577695e-27
9.0741959429802e-27
1.9941384575928e-26
4.0777319704366e-26
7.7407979130172e-26
1.3596126399317e-25
2.2002105958111e-25
3.2677084401901e-25
4.4570078578187e-25
5.6431814747741e-25
6.776425306986e-25
7.9170650540496e-25
9.1973836915436e-25
1.0767449882329e-24
1.2726954199072e-24
1.4993235015096e-24
1.7064521566732e-24
1.8073324948744e-24
1.8105708307352e-24
1.7863879579343e-24
1.7104750846265e-24
1.5536730238629e-24
1.3126196044866e-24
1.012608240314e-24
7.0018832304997e-25
4.2573401673182e-25
2.2368999230898e-25
1.0058178802611e-25
3.8988189744826e-26
1.3436410485622e-26
4.3194085649435e-27
1.3554860383113e-27
4.2644654681154e-28
1.3560672161653e-28
4.3561230665893e-29
1.4109693230959e-29
4.6043128666777e-30
1.5131552938692e-30
5.0035226848636e-31
1.661371118937e-31
5.5226592656194e-32
1.8315580056101e-32
6.0407190155109e-33
1.9764823364169e-33
6.4062750985799e-34
2.055878937666e-34
6.5321535640006e-35
2.0572051394931e-35
6.3888464875309e-36
2.0386138615119e-36
4.8183560975066e-37
3.5272433562322e-37
0
0
0
0
2.6255214596363e-80
4.8912011168553e-68
8.7743840571325e-66
7.8507667129825e-64
4.6648888075411e-62
2.0690237694038e-60
7.3011671025432e-59
2.1338019293232e-57
5.3109350788899e-56
1.1487999121685e-54
2.192605359513e-53
3.7377185602691e-52
5.7444567836334e-51
8.0188356192697e-50
1.0233207542741e-48
1.1996755762734e-47
1.2970786995613e-46
1.2984114310635e-45
1.2078431442517e-44
1.0470094383995e-43
8.4615056819999e-43
6.3678137921653e-42
4.477577998934e-41
3.0000596206121e-40
1.9977319098636e-39
1.3871315233798e-38
1.0245795531385e-37
7.8828040632064e-37
6.0668664499644e-36
4.5083323294519e-35
3.1622711989178e-34
2.0684955198521e-33
1.2549403043938e-32
7.0502448998368e-32
3.6692405269381e-31
1.7714266740472e-30
7.9461706883873e-30
3.317166019334e-29
1.290428305712e-28
4.682830705165e-28
1.5863533667137e-27
5.0186359899728e-27
1.4829492350373e-26
4.0922414507632e-26
1.0540935319362e-25
2.5321662142708e-25
5.6655482206574e-25
1.1786145082814e-24
2.2742977328594e-24
4.0565699312154e-24
6.6471445689743e-24
9.9499029698414e-24
1.3517916329884e-23
1.6574218784761e-23
1.8570860410264e-23
1.9731123707568e-23
2.0604560637791e-23
2.1596844648859e-23
2.2987551697128e-23
2.4906049704947e-23
2.7078754721263e-23
2.8497257739024e-23
2.864311029458e-23
2.8370717582635e-23
2.7381531966302e-23
2.5187658927918e-23
2.1627462820803e-23
1.7018486185697e-23
1.2052492158581e-23
7.5428785590758e-24
4.101688911386e-24
1.9177779467665e-24
7.7430570780769e-25
2.7706184290016e-25
9.1805135244643e-26
2.9468967105997e-26
9.4388909405125e-27
3.0517169927826e-27
9.974023219355e-28
3.2917692583722e-28
1.0962227568152e-28
3.6815917313391e-29
1.2452999500258e-29
4.2315547806554e-30
1.4392088434244e-30
4.8794190873568e-31
1.6429262455175e-31
5.4788496836251e-32
1.8068839711541e-32
5.8907142267966e-33
1.8988362024912e-33
6.0603947128692e-34
1.905437097435e-34
6.1560149238642e-35
1.4613902481229e-35
1.0957133026431e-35
0
0
0
0
1.7157269986735e-80
7.038950586088e-67
1.2312375439691e-64
1.0748167562058e-62
6.2376054550796e-61
2.705552807007e-59
9.3500597095201e-58
2.6802007541709e-56
6.5529257475521e-55
1.3945429529336e-53
2.6228859847828e-52
4.4137429423165e-51
6.7086610252497e-50
9.2796206417053e-49
1.1759452082461e-47
1.3720212240071e-46
1.4794656177329e-45
1.4798718264042e-44
1.3780551731985e-43
1.1984111474915e-42
9.7444803028081e-42
7.3888175062772e-41
5.2109918928314e-40
3.4634715156148e-39
2.2714392731347e-38
1.5685101082944e-37
1.1791753790494e-36
9.4169309582148e-36
7.5838528708739e-35
5.8972915951325e-34
4.316259817403e-33
2.9367349339976e-32
1.8480168021171e-31
1.0740341907562e-30
5.7676830628457e-30
2.8660295075333e-29
1.3203187522744e-28
5.6500520930338e-28
2.2499617403659e-27
8.3497322452614e-27
2.8906707919569e-26
9.3420308640945e-26
2.8192766627829e-25
7.9447355289882e-25
2.0898095356924e-24
5.1274294325189e-24
1.1720995963429e-23
2.4923656010691e-23
4.9189724673104e-23
8.9815608761935e-23
1.5097423632168e-22
2.3204594873074e-22
3.2241504518181e-22
3.9802127387804e-22
4.3481951337907e-22
4.3979390301497e-22
4.3666776384863e-22
4.2645910017773e-22
4.0880832794654e-22
3.9294635372783e-22
3.9027829508326e-22
3.9059190487741e-22
3.8909542317873e-22
3.829974032929e-22
3.6808372871276e-22
3.3958550157442e-22
2.9499468821687e-22
2.3655092319625e-22
1.7172347074594e-22
1.1074287832888e-22
6.2365531879784e-23
3.0326083739342e-23
1.2756014053999e-23
4.7429863553946e-24
1.6224033097003e-24
5.3360336396006e-25
1.7423227732353e-25
5.7322894258255e-26
1.9073325046963e-26
6.4177169257624e-27
2.1825515666442e-27
7.496605365632e-28
2.5962083562979e-28
9.0368760745394e-29
3.1477941838429e-29
1.0920088507361e-29
3.7568528888425e-30
1.2778428877896e-30
4.2904647679178e-31
1.421642501701e-31
4.6507873694942e-32
1.5047126505811e-32
4.7905968794488e-33
1.567465738984e-33
3.735294278584e-34
2.8725231407028e-34
0
0
0
1.345208494728e-109
-1.9165612577021e-97
8.2458893456972e-66
1.4192803463119e-63
1.2191516285468e-61
6.9639248507732e-60
2.9743621142624e-58
1.0127239120515e-56
2.8619419930217e-55
6.9029256288649e-54
1.4502503997646e-52
2.6949779968709e-51
4.4847011215372e-50
6.7479345795767e-49
9.2512879359243e-48
1.1635846523107e-46
1.349670608658e-45
1.4494562160027e-44
1.4464241443921e-43
1.3457550542237e-42
1.1712064388443e-41
9.5568307407402e-41
7.2986326574473e-40
5.1838279325416e-39
3.4357928232158e-38
2.2121400471776e-37
1.4930337244817e-36
1.1141999274322e-35
9.0214414813337e-35
7.4605920399532e-34
5.9846106022493e-33
4.5227767786586e-32
3.1776601014985e-31
2.065105727152e-30
1.2398363589441e-29
6.8792129066453e-29
3.5309588591781e-28
1.6786496713155e-27
7.4022623344713e-27
3.032495125559e-26
1.1560172364934e-25
4.1065303195468e-25
1.3608579414669e-24
4.2100485562118e-24
1.2162231422636e-23
3.2802948656177e-23
8.2548055489034e-23
1.9359846278028e-22
4.2245603262786e-22
8.5579275247417e-22
1.6042131685431e-21
2.7704309651909e-21
4.3776021556528e-21
6.2459934054748e-21
7.8491130829143e-21
8.5428853567385e-21
8.5529477081393e-21
8.38948678875e-21
7.9332560308772e-21
7.1292355533842e-21
6.1767533430876e-21
5.3855700689068e-21
4.904421226971e-21
4.6410819870969e-21
4.4441450722893e-21
4.2138489315303e-21
3.8810530245219e-21
3.4011816599707e-21
2.7756918934006e-21
2.0654588409443e-21
1.3735998046338e-21
8.0191515201085e-22
4.0590484522611e-22
1.7801318538996e-22
6.8845734811181e-23
2.4341044518708e-23
8.2132317769917e-24
2.7365978227784e-24
9.1681328884832e-25
3.1072396188137e-25
1.0664663086687e-25
3.7060296043989e-26
1.3028336772826e-26
4.6234567695815e-27
1.6500686164198e-27
5.8922117876121e-28
2.0936286597937e-28
7.3663717953285e-29
2.5577598598997e-29
8.7496808434036e-30
2.9484137554661e-30
9.7937161770003e-31
3.2132889484443e-31
1.0362178743418e-31
3.434792904599e-32
8.2111392131624e-33
6.4874226198963e-33
0
0
0
2.3359179477559e-93
4.6869965580121e-79
8.0919339134224e-65
1.3785266683881e-62
1.1717267262251e-60
6.6222505286539e-59
2.798599608966e-57
9.4293953818058e-56
2.6374368020044e-54
6.2975667434973e-53
1.3101042792687e-51
2.4114545104533e-50
3.976216657778e-49
5.9310184110707e-48
8.0660584441861e-47
1.0071262908843e-45
1.1608991308509e-44
1.2405931219769e-43
1.2336099551066e-42
1.1451841763392e-41
9.9556237646957e-41
8.1300158316519e-40
6.238172988688e-39
4.4686393534683e-38
2.9731590154166e-37
1.8846859075302e-36
1.2271580065081e-35
8.8604091064229e-35
7.1007450171319e-34
5.9318803967085e-33
4.8577934865672e-32
3.7649200878299e-31
2.7186825287194e-30
1.8189696787911e-29
1.1261801809568e-28
6.4541127689645e-28
3.4269933867619e-27
1.6878303584367e-26
7.7182789969289e-26
3.2800912125577e-25
1.2968215694622e-24
4.7756319103177e-24
1.6399763792523e-23
5.255946880808e-23
1.5724724178023e-22
4.3901080095464e-22
1.1426498277386e-21
2.7684277592418e-21
6.2305598679307e-21
1.2991139159414e-20
2.5009611596888e-20
4.4246541609511e-20
7.1451430838948e-20
1.0384495820868e-19
1.320261459799e-19
1.4385548511183e-19
1.4369415798227e-19
1.4011954865144e-19
1.3036361385568e-19
1.1288843800498e-19
9.1128186292243e-20
7.1127689776262e-20
5.7378082242034e-20
4.975835248179e-20
4.5440063572755e-20
4.2089064238643e-20
3.8445144074051e-20
3.3824046104382e-20
2.8004863219315e-20
2.1327713371388e-20
1.4621821584533e-20
8.8531686536886e-21
4.668530200541e-21
2.1369463980205e-21
8.6069339470624e-22
3.1495943198258e-22
1.0915903930857e-22
3.7143990583722e-23
1.2677268864842e-23
4.3777569771211e-24
1.5331814156412e-24
5.4467531325067e-25
1.9609546262006e-25
7.1364232868718e-26
2.613710866915e-26
9.5774034825155e-27
3.4891556341536e-27
1.2568512191247e-27
4.4593990155587e-28
1.5556236633461e-28
5.3350896620197e-29
1.8004875693416e-29
5.9934422246977e-30
1.9583925034008e-30
6.5789654757482e-31
1.5765130571657e-31
1.2821722360023e-31
0
0
0
3.8290851065506e-90
1.1075184034217e-77
6.7924267685108e-64
1.1498261291369e-61
9.7080314934091e-60
5.4486146869235e-58
2.2862359986325e-56
7.6474974528991e-55
2.1235099326834e-53
5.0334795300139e-52
1.0394896223702e-50
1.8994569310999e-49
3.1093642973841e-48
4.6050259285676e-47
6.2197074540728e-46
7.7147395390903e-45
8.8386184763612e-44
9.3957747878674e-43
9.3029838881581e-42
8.6083538163177e-41
7.4662479676269e-40
6.0894325281668e-39
4.6795407150009e-38
3.375143451125e-37
2.2651287388648e-36
1.4264438826854e-35
8.936437803427e-35
6.1008198516862e-34
4.7058939430872e-33
3.8974110345504e-32
3.2265800533221e-31
2.5515057892175e-30
1.8878635094805e-29
1.2972978431172e-28
8.2654751843653e-28
4.8856264276872e-27
2.6824708859643e-26
1.3698790720688e-25
6.5165557073119e-25
2.8911964008938e-24
1.1968107046569e-23
4.6209971717422e-23
1.6635008112797e-22
5.5813350928456e-22
1.744648199531e-21
5.0772487249928e-21
1.3740158927578e-20
3.4519864098671e-20
8.0331442301421e-20
1.726623355834e-19
3.4154699296359e-19
6.1877275042781e-19
1.019078028676e-18
1.503704432724e-18
1.9261537681407e-18
2.0968754404158e-18
2.0910348199314e-18
2.0282491249518e-18
1.8633835614329e-18
1.5697587016284e-18
1.2037547284134e-18
8.6108498153985e-19
6.1797459548473e-19
4.8225945208816e-19
4.1307656453029e-19
3.7082757930265e-19
3.3453497049839e-19
2.9448284827082e-19
2.4662107535877e-19
1.9177743730333e-19
1.3533492319521e-19
8.4919016931782e-20
4.6647865996263e-20
2.2298968165755e-20
9.3654589338762e-21
3.5534349874743e-21
1.2671352231388e-21
4.4084085901491e-22
1.533636196201e-22
5.3972187319605e-23
1.9290657994295e-23
7.0079246883638e-24
2.5850295967927e-24
9.6537447023889e-25
3.6314094422105e-25
1.3668067049949e-25
5.1110432664076e-26
1.8870755776173e-26
6.8497184334684e-27
2.4393088658537e-27
8.5222437441285e-28
2.9243273798147e-28
9.8823080511091e-29
3.2733970608743e-29
1.1149738913198e-29
2.6756536345478e-30
2.245240474951e-30
0
0
0
1.5624254810199e-89
9.0177668805955e-77
4.9545997688006e-63
8.3574253223511e-61
7.0283804583685e-59
3.9277790951531e-57
1.6405789720434e-55
5.4615400663932e-54
1.5090269835991e-52
3.5586841768972e-51
7.3106654662992e-50
1.3287194154033e-48
2.1631354715679e-47
3.1857366812188e-46
4.2786554499449e-45
5.2772725541813e-44
6.0127734437149e-43
6.3590453197344e-42
6.2675793022291e-41
5.7773879327175e-40
4.9951995995498e-39
4.0637290763322e-38
3.1195198026157e-37
2.2574748038733e-36
1.5288481090885e-35
9.6609888715967e-35
5.8855970119798e-34
3.7572612685212e-33
2.7041748776496e-32
2.1615728144141e-31
1.7837701197325e-30
1.4308774360868e-29
1.0823645327549e-28
7.6287634369554e-28
4.9946595713566e-27
3.0399734957008e-26
1.7235168755825e-25
9.1226811997617e-25
4.5160332464552e-24
2.093851766159e-23
9.1010455321117e-23
3.7060069813242e-22
1.4103172953749e-21
4.9994200892257e-21
1.6461692844875e-20
5.0244017912499e-20
1.4193510774191e-19
3.7054164317541e-19
8.9230395154559e-19
1.9768291471059e-18
4.0149831617814e-18
7.4398561245365e-18
1.2481009968025e-17
1.8666544310552e-17
2.4078349628383e-17
2.6196388347336e-17
2.609095412557e-17
2.5200186825109e-17
2.2907243219973e-17
1.8879516717432e-17
1.3913146353377e-17
9.2893670994535e-18
6.0130902436402e-18
4.2046102010778e-18
3.3413216983659e-18
2.8911877909191e-18
2.5711197811922e-18