/*--------------------------------*- C++ -*----------------------------------*\
  =========                 |
  \\      /  F ield         | OpenFOAM: The Open Source CFD Toolbox
   \\    /   O peration     | Website:  https://openfoam.org
    \\  /    A nd           | Version:  7
     \\/     M anipulation  |
\*---------------------------------------------------------------------------*/
FoamFile
{
    version     2.0;
    format      ascii;
    class       volScalarField;
    location    "3.8";
    object      alpha.water;
}
// * * * * * * * * * * * * * * * * * * * * * * * * * * * * * * * * * * * * * //

dimensions      [0 0 0 0 0 0 0];

internalField   nonuniform List<scalar> 
6000
(
0
0
0
0
0
0
0
0
0
0
0
0
0
0
0
0
0
0
0
0
0
0
0
0
0
0
0
0
0
0
0
0
0
0
0
0
0
0
0
0
0
0
0
0
0
0
0
0
0
0
0
0
0
0
0
0
0
0
0
0
0
0
0
0
0
0
0
0
0
0
0
0
0
0
0
0
0
0
0
0
0
0
0
0
0
0
0
0
0
0
0
0
0
0
0
0
0
0
0
0
0
0
0
0
0
0
0
0
0
0
0
0
0
0
0
0
0
0
0
0
0
0
0
0
0
0
0
0
0
0
0
0
0
0
0
0
0
0
0
0
0
0
0
0
0
0
0
0
0
0
0
0
0
0
0
0
0
0
0
0
0
0
0
0
0
0
0
0
0
0
0
0
0
0
0
0
0
0
0
0
0
0
0
0
0
0
0
0
0
0
0
0
0
0
0
0
0
0
0
0
0
0
0
0
0
0
0
0
0
0
0
0
0
0
0
0
0
0
0
0
0
0
0
0
0
0
0
0
0
0
0
0
0
0
0
0
0
0
0
0
0
0
0
0
0
0
0
0
0
0
0
0
0
0
0
0
0
0
0
0
0
0
0
0
0
0
0
0
0
0
0
0
0
0
0
0
0
0
0
0
0
0
0
0
0
0
0
0
0
0
0
0
0
0
0
0
0
0
0
0
0
0
0
0
0
0
0
0
0
0
0
0
0
0
0
0
0
0
0
0
0
0
0
0
0
0
0
0
0
0
0
0
0
0
0
0
0
0
0
0
0
0
0
0
0
0
0
0
0
0
0
0
0
0
0
0
0
0
0
0
0
0
0
0
0
0
0
0
0
0
0
0
0
0
0
0
0
0
0
0
0
0
0
0
0
0
0
0
0
0
0
0
0
0
0
0
0
0
0
0
0
0
0
0
0
0
0
0
0
3.9030409882564e-88
4.7790049519141e-86
2.9065424235777e-84
1.17333473266e-82
3.5382535313185e-81
8.513091039966e-80
1.7011243580991e-78
2.9037208724265e-77
4.3229701868641e-76
5.7013435723606e-75
6.7448144102571e-74
7.2292568885082e-73
7.0784853533179e-72
6.3758856140399e-71
5.3144729310096e-70
4.120300327346e-69
2.9843852439546e-68
2.0274531204234e-67
1.2962994942905e-66
7.8246024364922e-66
4.4711340588745e-65
2.4246533762919e-64
1.2506767794482e-63
6.1488427854787e-63
2.8867605642789e-62
1.2964251169193e-61
5.5781719777503e-61
2.302936506144e-60
9.1349957380336e-60
3.4859341740135e-59
1.281226069492e-58
4.5405132644683e-58
1.5531134233091e-57
5.1326187770697e-57
1.640232619438e-56
5.0730902832758e-56
1.5198096574674e-55
4.4135142439881e-55
1.2432829858082e-54
3.3996987055344e-54
9.0297451158015e-54
2.3309909142249e-53
5.8517797625565e-53
1.4294137703977e-52
3.3992194872182e-52
7.8735376002971e-52
1.7772083604471e-51
3.9109630702535e-51
8.3945243074136e-51
1.7581573455976e-50
3.5945388666465e-50
7.1766172509049e-50
1.3997423670644e-49
2.6679767412907e-49
4.9712984454623e-49
9.0584513133865e-49
1.6146234658549e-48
2.8161349468506e-48
4.8075928721922e-48
8.0355575221562e-48
1.3153357670897e-47
2.1091299040749e-47
3.3137960348828e-47
5.1028188758755e-47
7.7029815879858e-47
1.1401726942418e-46
1.6551654218405e-46
2.3570226074258e-46
3.293267355348e-46
4.5156262422077e-46
6.0774363567603e-46
8.0300049848451e-46
1.0417958820161e-45
1.3273864104621e-45
1.6612455843645e-45
2.0425085394483e-45
2.4674983739449e-45
2.9294113371518e-45
3.418218023915e-45
3.9208361212776e-45
4.4215936284025e-45
4.9029790335852e-45
5.3466343530291e-45
5.7345133447616e-45
6.0501104319671e-45
6.2796274244219e-45
6.4129861325104e-45
6.4445512673062e-45
6.3735307304869e-45
6.2039752038555e-45
4.7679123181157e-44
0
0
0
0
0
0
0
-3.624233960668e-78
-4.2429034907365e-76
-2.4741815464384e-74
-9.5816238006648e-73
-2.7721415971797e-71
-6.3909323469606e-70
-1.2228892493543e-68
-1.9975098136435e-67
-2.8430992755463e-66
-3.581791951929e-65
-4.0436166872851e-64
-4.1316432912477e-63
-3.8522606711162e-62
-3.300065484673e-61
-2.6125381257689e-60
-1.9208448753025e-59
-1.3172645989318e-58
-8.4571153480961e-58
-5.0997854363319e-57
-2.8966613072361e-56
-1.5536084116203e-55
-7.885477944377e-55
-3.7946884763908e-54
-1.7341501813247e-53
-7.5360758968964e-53
-3.1175974121115e-52
-1.2287230924855e-51
-4.6158220927381e-51
-1.6528681311054e-50
-5.6394917959835e-50
-1.8313969212118e-49
-5.6490369924414e-49
-1.6492061268462e-48
-4.5295461684523e-48
-1.1579097913102e-47
-2.6994305057696e-47
-5.4852984692572e-47
-8.4875368304948e-47
-3.2580404091419e-47
4.6728506871889e-46
2.6972785670568e-45
1.06673325945e-44
3.5945040520524e-44
1.0987004737343e-43
3.1300329386318e-43
8.4310967771868e-43
2.1658657179e-42
5.3363983374122e-42
1.2660590269784e-41
2.9007816760405e-41
6.4328404498601e-41
1.3832076042225e-40
2.8879970660167e-40
5.8621233864312e-40
1.1579986282099e-39
2.2281383273808e-39
4.1792311750441e-39
7.6466701278055e-39
1.365655354409e-38
2.3820376620517e-38
4.0599425024758e-38
6.7649123422415e-38
1.1024722430069e-37
1.7579863441098e-37
2.743932919027e-37
4.1937209876266e-37
6.278309959383e-37
9.2096788258026e-37
1.3241558232085e-36
1.8666146703938e-36
2.5805580987048e-36
3.4997195627626e-36
4.6572120638496e-36
6.0827523072383e-36
7.7993744947504e-36
9.8198620921356e-36
1.2143222459844e-35
1.4751601702226e-35
1.7608068270921e-35
2.0655670323815e-35
2.3818087249003e-35
2.7002053273953e-35
3.0101544197564e-35
3.3003509718624e-35
3.5594732403237e-35
3.7769230344673e-35
3.9435520552866e-35
4.0523041937401e-35
4.0987106151275e-35
4.0811893822151e-35
4.0011222776218e-35
3.862705477981e-35
2.8747271426736e-34
0
0
0
0
0
0
-1.6077389510615e-76
-1.9353484619077e-74
-1.1603578681647e-72
-4.6200986187775e-71
-1.3743191099957e-69
-3.2578198717069e-68
-6.4105485520704e-67
-1.077016855528e-65
-1.5771000501322e-64
-2.0447470441423e-63
-2.376580871113e-62
-2.5012458931039e-61
-2.4035195245357e-60
-2.1234627262942e-59
-1.7350650485894e-58
-1.3178701371409e-57
-9.3462839432891e-57
-6.2130227145003e-56
-3.8846977672204e-55
-2.2915569508536e-54
-1.2788308502501e-53
-6.7682392303293e-53
-3.404764714426e-52
-1.6312740397651e-51
-7.4575606794706e-51
-3.2585892633374e-50
-1.3630045989299e-49
-5.465342079843e-49
-2.1035761021998e-48
-7.7811577681517e-48
-2.7692317949711e-47
-9.4918431655347e-47
-3.1363962395691e-46
-9.9995777024084e-46
-3.078606563821e-45
-9.1594979291455e-45
-2.6353001784138e-44
-7.3366709783729e-44
-1.977525152077e-43
-5.1631682571859e-43
-1.3063881100123e-42
-3.2044394868302e-42
-7.6223323279634e-42
-1.7586460158271e-41
-3.9362706550144e-41
-8.5472215437102e-41
-1.800377905459e-40
-3.677916166602e-40
-7.283803059056e-40
-1.3974750521909e-39
-2.5949255206498e-39
-4.6565147695663e-39
-8.0577120285484e-39
-1.3402121363485e-38
-2.1319991416801e-38
-3.2178335488221e-38
-4.5439138840172e-38
-5.8412689109128e-38
-6.4040259816431e-38
-4.7212536414837e-38
2.0993554923525e-38
1.9186378361029e-37
5.5108820274795e-37
1.2348621938538e-36
2.4502688610007e-36
4.4995636504285e-36
7.8071037353823e-36
1.2946539640618e-35
2.0664616399962e-35
3.1896698921284e-35
4.7768198783836e-35
6.9575742314463e-35
9.8742484207898e-35
1.36743667026e-34
1.850014369865e-34
2.4475191978008e-34
3.1689225674639e-34
4.0182008293503e-34
4.9928200386916e-34
6.0825015534857e-34
7.268461746015e-34
8.5232940699915e-34
9.8116086363199e-34
1.1091467549737e-33
1.2316562425549e-33
1.3438986142355e-33
1.4412367983743e-33
1.519508305439e-33
1.5753223181107e-33
1.6063032266573e-33
1.6112562980652e-33
1.5902396499897e-33
1.5445370744025e-33
1.1731113048379e-32
0
0
0
0
0
5.3374023658145e-78
-8.9315472191668e-75
-1.1036795326282e-72
-6.6354097820269e-71
-2.6346483103032e-69
-7.7995618591117e-68
-1.8383722483508e-66
-3.595411505288e-65
-6.0027537971876e-64
-8.7346795722421e-63
-1.1253987046259e-61
-1.2999892587472e-60
-1.3599405933866e-59
-1.2991347674885e-58
-1.1412186314748e-57
-9.2733954957039e-57
-7.0061781554157e-56
-4.9433901308399e-55
-3.2701141855874e-54
-2.0351333868771e-53
-1.1952221915168e-52
-6.6424075252754e-52
-3.5018731685604e-51
-1.7552878121994e-50
-8.3821585366068e-50
-3.8206069357764e-49
-1.6650192826274e-48
-6.9486116334832e-48
-2.7809729613488e-47
-1.0687985710376e-46
-3.9494164820063e-46
-1.404775563288e-45
-4.8148397713891e-45
-1.5918042857203e-44
-5.0808140350259e-44
-1.5670713166653e-43
-4.6742000911316e-43
-1.3493267663035e-42
-3.7724630128296e-42
-1.0221564738651e-41
-2.6857261279775e-41
-6.8471084830046e-41
-1.6946715132776e-40
-4.073909650186e-40
-9.5166226532372e-40
-2.1611325647551e-39
-4.7727856605389e-39
-1.0254211532635e-38
-2.1438905119015e-38
-4.3629916243798e-38
-8.644479716879e-38
-1.6677656850233e-37
-3.1334070217225e-37
-5.7332280222685e-37
-1.021558417256e-36
-1.7723465955922e-36
-2.9932612479219e-36
-4.9189881185852e-36
-7.861093684123e-36
-1.220660592439e-35
-1.8394394273216e-35
-2.6853886108318e-35
-3.7886339637268e-35
-5.1465850354633e-35
-6.693708002874e-35
-8.2591227750272e-35
-9.5112836107644e-35
-9.8908929453578e-35
-8.5358852681498e-35
-4.205639343952e-35
4.7848492509245e-35
2.0606884831835e-34
4.5920047183377e-34
8.3818100618844e-34
1.3770534044453e-33
2.1109566500803e-33
3.0733553000784e-33
4.2926319109354e-33
5.7882891403442e-33
7.5671224100303e-33
9.6198079773441e-33
1.1918384827523e-32
1.4415077211904e-32
1.7042802512344e-32
1.9717542775984e-32
2.2342546172237e-32
2.4814095123959e-32
2.7028364848374e-32
2.8888733122887e-32
3.0312816473314e-32
3.1238515312553e-32
3.1628451835098e-32
3.1472365704036e-32
3.0787267236244e-32
2.3873997710833e-31
0
0
0
0
0
3.212595347103e-76
-2.4558347784982e-73
-3.1415668982576e-71
-1.9023262403367e-69
-7.5601506011051e-68
-2.2347633841522e-66
-5.25356952962e-65
-1.0241509831885e-63
-1.7037583555041e-62
-2.4697714278202e-61
-3.1696859737851e-60
-3.6468789074295e-59
-3.7998036317657e-58
-3.6153834630604e-57
-3.1632657684448e-56
-2.5602739890318e-55
-1.9267659958793e-54
-1.3542422789031e-53
-8.9245286551024e-53
-5.5334577683491e-52
-3.2379280024945e-51
-1.7930616051977e-50
-9.4202061243086e-50
-4.7058772207131e-49
-2.2398824836424e-48
-1.0177161714934e-47
-4.4217026835843e-47
-1.8399186437709e-46
-7.3432043332038e-46
-2.8147174852944e-45
-1.0374997960288e-44
-3.6817032984283e-44
-1.2591749035083e-43
-4.1546780104044e-43
-1.3237672063554e-42
-4.0765378983941e-42
-1.2143267784024e-41
-3.5017107549278e-41
-9.782309288478e-41
-2.6492052402864e-40
-6.9595588168222e-40
-1.7746050304837e-39
-4.3946244458893e-39
-1.0574820843287e-38
-2.4738435826289e-38
-5.6288851517425e-38
-1.2462726193135e-37
-2.6860910247446e-37
-5.63779092369e-37
-1.1527321981865e-36
-2.2967656865208e-36
-4.4606482085367e-36
-8.4466120849448e-36
-1.5597894078739e-35
-2.8094928197133e-35
-4.9366321170972e-35
-8.4628652309173e-35
-1.4154963994086e-34
-2.3099362643774e-34
-3.6775270276788e-34
-5.7108965427807e-34
-8.6482355216158e-34
-1.2765857065204e-33
-1.8357823599245e-33
-2.5697499157576e-33
-3.4976150060161e-33
-4.6215136224523e-33
-5.9151122852105e-33
-7.3098228195654e-33
-8.6796932339403e-33
-9.8266328093273e-33
-1.0468288829366e-32
-1.0231397583653e-32
-8.6536269877137e-33
-5.1966667530338e-33
7.2749404153075e-34
9.7165482082614e-33
2.2325418230113e-32
3.900480237544e-32
6.0036223909189e-32
8.5470738485737e-32
1.1507931845167e-31
1.4832272811919e-31
1.8434730112391e-31
2.2201049813368e-31
2.5993673785908e-31
2.9660021144981e-31
3.304277716063e-31
3.5991210410562e-31
3.8372371663961e-31
4.008101083262e-31
4.1047186213833e-31
4.124081296234e-31
4.0672763693646e-31
3.2190541128686e-30
0
0
0
0
5.1923926654922e-88
9.6440881596926e-75
-4.4495089265285e-72
-5.9334138013762e-70
-3.6258908569272e-68
-1.4440849941025e-66
-4.26661353267e-65
-1.0012627418865e-63
-1.9471475306354e-62
-3.230017378929e-61
-4.6676991866159e-60
-5.9708825016113e-59
-6.846553532048e-58
-7.1090123534633e-57
-6.7403242662358e-56
-5.8766497066265e-55
-4.7396256892006e-54
-3.5542727913361e-53
-2.4893556724935e-52
-1.6347542833296e-51
-1.0100686779708e-50
-5.8900830335058e-50
-3.2506053412207e-49
-1.702005683456e-48
-8.4740551976052e-48
-4.0201869955594e-47
-1.8207063962089e-46
-7.8853063583139e-46
-3.2709109500787e-45
-1.3014390029588e-44
-4.9735902323897e-44
-1.8278940721528e-43
-6.4680371591685e-43
-2.2060005510434e-42
-7.2592254074608e-42
-2.3069489688588e-41
-7.0865398544315e-41
-2.105914300411e-40
-6.0589464704461e-40
-1.6889741454786e-39
-4.5647719867718e-39
-1.1969297489046e-38
-3.0467631966866e-38
-7.5332244707294e-38
-1.8102251423422e-37
-4.2297767471919e-37
-9.6149318547079e-37
-2.1272437091055e-36
-4.5826532811672e-36
-9.6165736159636e-36
-1.9664863777076e-35
-3.9199564796688e-35
-7.6196094720755e-35
-1.4446933325531e-34
-2.6725701735188e-34
-4.8250341754364e-34
-8.5032436731992e-34
-1.4630661805459e-33
-2.4581399356917e-33
-4.033344550745e-33
-6.4636193907352e-33
-1.0117054009741e-32
-1.5466558034589e-32
-2.3091987944265e-32
-3.3665999504188e-32
-4.7915844333326e-32
-6.6553270425599e-32
-9.0166176566965e-32
-1.1906918937231e-31
-1.5311612256777e-31
-1.9148517791495e-31
-2.3245704767686e-31
-2.7321547248068e-31
-3.0970746681473e-31
-3.3660423292969e-31
-3.4740173041744e-31
-3.3469052822449e-31
-2.9060758735152e-31
-2.0745909447222e-31
-7.8476038857293e-32
1.0136310034373e-31
3.3453061539636e-31
6.2026961509632e-31
9.5413608537402e-31
1.3278474026571e-30
1.7294914677202e-30
2.1441092682341e-30
2.5546168830306e-30
2.9429877336459e-30
3.291579425544e-30
3.5844677709343e-30
3.8086472000973e-30
3.9549723946077e-30
4.0187481434927e-30
3.999918034738e-30
3.2299145038929e-29
0
0
0
0
3.2000930648373e-86
1.9251917302881e-73
-5.9640734542253e-71
-8.3576067768412e-69
-5.1626448449529e-67
-2.0621983356297e-65
-6.0932425239552e-64
-1.4280533894469e-62
-2.7713959737623e-61
-4.5857496424211e-60
-6.6082668339434e-59
-8.4278744176926e-58
-9.6335989975958e-57
-9.9706333955994e-56
-9.4224391659918e-55
-8.1877083165124e-54
-6.5813354957129e-53
-4.9187019454477e-52
-3.4333068411754e-51
-2.2470009139935e-50
-1.3836568667232e-49
-8.0413565310464e-49
-4.4229083068451e-48
-2.3080614367706e-47
-1.1453243922835e-46
-5.4155644503836e-46
-2.4446018963641e-45
-1.0552833907969e-44
-4.363290559427e-44
-1.7305243126441e-43
-6.5924520265029e-43
-2.4152759538372e-42
-8.5200816424254e-42
-2.89701200102e-41
-9.5044615952933e-41
-3.0115371710226e-40
-9.2240007217954e-40
-2.7332793683561e-39
-7.8419438075005e-39
-2.18001639005e-38
-5.8761768315936e-38
-1.5367899110883e-37
-3.9020075259296e-37
-9.6243199468759e-37
-2.3072818253007e-36
-5.3790663700678e-36
-1.2201220878786e-35
-2.6939673930214e-35
-5.7924884096362e-35
-1.2133944194759e-34
-2.4772646501238e-34
-4.9310082643986e-34
-9.572848795807e-34
-1.8131263383469e-33
-3.3513950930676e-33
-6.0471833879557e-33
-1.0654169426388e-32
-1.8332572894898e-32
-3.0814272983055e-32
-5.0603510885139e-32
-8.1203062615524e-32
-1.2734329346331e-31
-1.9517535597656e-31
-2.9237134593984e-31
-4.2805630020316e-31
-6.1248386272112e-31
-8.5636488335501e-31
-1.1697722598108e-30
-1.5605812806359e-30
-2.0324653375016e-30
-2.5825505558702e-30
-3.1989322407022e-30
-3.8583572860552e-30
-4.524460595108e-30
-5.1469878819695e-30
-5.6624209007172e-30
-5.9963293075018e-30
-6.0676023841301e-30
-5.7944750373896e-30
-5.1019831655576e-30
-3.930204676409e-30
-2.2424129782655e-30
-3.2137588385488e-32
2.6718712275102e-30
5.8036227285454e-30
9.2613619550804e-30
1.2912686179228e-29
1.6602986833093e-29
2.0166460959187e-29
2.3438582802011e-29
2.6268718003868e-29
2.8531533942283e-29
3.0136014223369e-29
3.1031197152894e-29
3.1208176199269e-29
2.5711064988035e-28
0
0
0
0
9.7872789192764e-85
2.8749891999283e-72
-6.291044216284e-70
-9.3594135260147e-68
-5.8539561441523e-66
-2.3468795291313e-64
-6.9377196782227e-63
-1.6243257852884e-61
-3.1465377034222e-60
-5.1944110299926e-59
-7.4656431244457e-58
-9.4941986821193e-57
-1.0819932187434e-55
-1.1163700537094e-54
-1.0516344352045e-53
-9.1086821758095e-53
-7.2976215221313e-52
-5.4359985647682e-51
-3.7817620930831e-50
-2.4667879613015e-49
-1.5139117350247e-48
-8.7688684477368e-48
-4.8068914895136e-47
-2.5000416835001e-46
-1.2364437054892e-45
-5.8269180662631e-45
-2.6215424228193e-44
-1.1279149973083e-43
-4.6482081388202e-43
-1.8374671520357e-42
-6.9769595487677e-42
-2.5478323401421e-41
-8.9586142604361e-41
-3.0363311508378e-40
-9.929732643037e-40
-3.1363144551048e-39
-9.5759735907992e-39
-2.8287306899633e-38
-8.0907336020318e-38
-2.2423022322098e-37
-6.0257924828075e-37
-1.5712115301835e-36
-3.9776481160182e-36
-9.7823942787351e-36
-2.3384765912525e-35
-5.4364930182173e-35
-1.229756523404e-34
-2.7079385095674e-34
-5.8072642657753e-34
-1.2133906992209e-33
-2.4711492483838e-33
-4.9071535409086e-33
-9.5048707432193e-33
-1.7963578102512e-32
-3.3136333471022e-32
-5.9676964984772e-32
-1.0495813449482e-31
-1.8031821008875e-31
-3.0267357515202e-31
-4.9648724685774e-31
-7.9600711511832e-31
-1.2475738146019e-30
-1.9116518044777e-30
-2.8640702826177e-30
-4.1957985161651e-30
-6.0104619284784e-30
-8.4187805244434e-30
-1.1529233307285e-29
-1.5434566595268e-29
-2.0194292971563e-29
-2.581405487913e-29
-3.2223586015951e-29
-3.9255873925213e-29
-4.6630842180891e-29
-5.3947241351182e-29
-6.0686288569222e-29
-6.6229806351161e-29
-6.989416029691e-29
-7.0979287215046e-29
-6.8829777748696e-29
-6.2902678636362e-29
-5.2834815356704e-29
-3.8501396378705e-29
-2.005773847827e-29
2.0427273090859e-30
2.7058535743546e-29
5.3999395905598e-29
8.1691872474893e-29
1.0886538095815e-28
1.3424958858479e-28
1.5667276029708e-28
1.7515047957825e-28
1.8895550985316e-28
1.9766210821856e-28
2.0116143453398e-28
1.6916492417424e-27
0
0
0
0
1.9862441144566e-83
3.4258248956327e-71
-5.4184587572405e-69
-8.6753446757146e-67
-5.5044841448554e-65
-2.2163925313304e-63
-6.5576080372762e-62
-1.5341590004995e-60
-2.966984961308e-59
-4.8873459030778e-58
-7.0066338453376e-57
-8.8859724112343e-56
-1.0097285123196e-54
-1.0386528077166e-53
-9.7537444111574e-53
-8.421282720092e-52
-6.7251022835854e-51
-4.9931620471462e-50
-3.4622397281915e-49
-2.2508793278331e-48
-1.3768024374715e-47
-7.9480462409313e-47
-4.3423365245581e-46
-2.2508497548305e-45
-1.1094620443607e-44
-5.210932039432e-44
-2.3365334822605e-43
-1.0019150627022e-42
-4.1151038991185e-42
-1.6212771056154e-41
-6.1354782415215e-41
-2.233058520969e-40
-7.8256423282473e-40
-2.6435127388225e-39
-8.6164134671163e-39
-2.7124969525681e-38
-8.2546314131408e-38
-2.4303918540126e-37
-6.9286389250422e-37
-1.9139714379303e-36
-5.126764107976e-36
-1.3324747399775e-35
-3.3624355000862e-35
-8.2429954817326e-35
-1.9642432671707e-34
-4.5521298208995e-34
-1.0265048770214e-33
-2.2534127892976e-33
-4.8178057410114e-33
-1.0036254001167e-32
-2.0379002521477e-32
-4.035047448399e-32
-7.7933662158247e-32
-1.4687893152698e-31
-2.7020311120141e-31
-4.8534138732751e-31
-8.5143497270422e-31
-1.459200995782e-30
-2.4436648788724e-30
-3.9996811733533e-30
-6.3995746212347e-30
-1.0011373324529e-29
-1.5315004985579e-29
-2.2912585613505e-29
-3.352774266898e-29
-4.7988073130248e-29
-6.7184707026321e-29
-9.2003912615421e-29
-1.2322805561768e-28
-1.614071487243e-28
-2.0670754858464e-28
-2.587505584949e-28
-3.1645987632147e-28
-3.7794178100471e-28
-4.4042433720679e-28
-5.0028050616752e-28
-5.5315410753878e-28
-5.9419702718199e-28
-6.1841175787543e-28
-6.2107706026608e-28
-5.9821873435252e-28
-5.4707502925713e-28
-4.6649973255671e-28
-3.5724735847579e-28
-2.2209476212515e-28
-6.5771127912228e-29
1.0530865339023e-28
2.834870742935e-28
4.6044013776597e-28
6.2782537277674e-28
7.7793126494487e-28
9.042581172696e-28
1.0019704136017e-27
1.0681785665751e-27
1.1020304843454e-27
9.4677179679292e-27
0
0
0
0
3.0103855441143e-82
3.3929504414774e-70
-3.8966294163964e-68
-6.8416065004462e-66
-4.4133724333945e-64
-1.7861571904605e-62
-5.2912479498804e-61
-1.2372406582273e-59
-2.3892159999294e-58
-3.927540136635e-57
-5.616996088208e-56
-7.1045719116846e-55
-8.0500566117967e-54
-8.2560084476632e-53
-7.7292055474557e-52
-6.6523318257367e-51
-5.2954445793851e-50
-3.9189360179779e-49
-2.7084685289996e-48
-1.7550168454318e-47
-1.0699261320792e-46
-6.1558523159691e-46
-3.3518991319986e-45
-1.7316049059516e-44
-8.506397878153e-44
-3.9817724415053e-43
-1.7793371750599e-42
-7.6039679017182e-42
-3.1125160351721e-41
-1.2221037767256e-40
-4.6091218861128e-40
-1.6718139523466e-39
-5.8388222245307e-39
-1.9656384525864e-38
-6.3850676311625e-38
-2.0032029550853e-37
-6.0753362808642e-37
-1.7826511533096e-36
-5.0647289130954e-36
-1.3943219615053e-35
-3.7221323623589e-35
-9.6411824776988e-35
-2.4246587396067e-34
-5.9239333951912e-34
-1.4068656191563e-33
-3.249442088719e-33
-7.3029357068608e-33
-1.5978132296028e-32
-3.4047952389691e-32
-7.0693386397979e-32
-1.4307572331809e-31
-2.8237074309554e-31
-5.4362347080589e-31
-1.0212942229824e-30
-1.8729173095467e-30
-3.3537746022176e-30
-5.8657137031705e-30
-1.002294767857e-29
-1.6736521710358e-29
-2.7316754824928e-29
-4.3589050979391e-29
-6.8012893131967e-29
-1.0378679188896e-28
-1.5491415122906e-28
-2.2619772517057e-28
-3.2312544709116e-28
-4.5161021123106e-28
-6.1755301285168e-28
-8.2621453295058e-28
-1.0814054163425e-27
-1.3845389264562e-27
-1.7336278783362e-27
-2.1223449728155e-27
-2.5392943596022e-27
-2.9676543458544e-27
-3.3853396115197e-27
-3.7657919877691e-27
-4.0794422511581e-27
-4.2957974435261e-27
-4.3860103008834e-27
-4.3256948489618e-27
-4.0976820059536e-27
-3.6943763168881e-27
-3.1193899034458e-27
-2.3881948945723e-27
-1.5276446851657e-27
-5.743526917626e-28
4.279358564589e-28
1.4317111901302e-27
2.3894407177359e-27
3.257274757399e-27
3.9983175059482e-27
4.5851304143394e-27
5.0012433245479e-27
5.2415807831598e-27
4.6050987449928e-26
0
0
0
0
3.6387138237518e-81
2.8727314529447e-69
-2.3662130043875e-67
-4.6827060955325e-65
-3.0791322911956e-63
-1.253621775231e-61
-3.7198285712934e-60
-8.6955097094691e-59
-1.6769576222998e-57
-2.7513421831317e-56
-3.9256609322709e-55
-4.9523814188667e-54
-5.5957681665507e-53
-5.7220936610782e-52
-5.3407023113794e-51
-4.5822774722532e-50
-3.6360248521033e-49
-2.682181490541e-48
-1.8476607697977e-47
-1.1932853319641e-46
-7.2505336059414e-46
-4.1576511126477e-45
-2.2562461398606e-44
-1.1616444000789e-43
-5.6871284436927e-43
-2.6530261527536e-42
-1.1815074262921e-41
-5.0318464392823e-41
-2.0525972011294e-40
-8.0315921427695e-40
-3.0186292836137e-39
-1.0911245613141e-38
-3.7975486777268e-38
-1.2740030973857e-37
-4.1239961404628e-37
-1.2893204891586e-36
-3.8966092067432e-36
-1.1393602472029e-35
-3.225721153674e-35
-8.8492725616732e-35
-2.3540106770147e-34
-6.0759971259931e-34
-1.5226756800955e-33
-3.7071128040574e-33
-8.7729751934353e-33
-2.0191664010754e-32
-4.5220029445902e-32
-9.8589623752788e-32
-2.0934888961862e-31
-4.3314820468283e-31
-8.7358758907036e-31
-1.7181019060997e-30
-3.2962753825506e-30
-6.1713639371879e-30
-1.1278844189363e-29
-2.0128356163889e-29
-3.5086395616478e-29
-5.9755022498694e-29
-9.9454800924484e-29
-1.6180619313222e-28
-2.5738110955684e-28
-4.0036478624862e-28
-6.0912908341922e-28
-9.0657588524399e-28
-1.3200709702253e-27
-1.880765021695e-27
-2.6221018431156e-27
-3.5773566165359e-27
-4.7761381395466e-27
-6.2399303636521e-27
-7.9769318997127e-27
-9.9766568461281e-27
-1.220495387407e-26
-1.4600242183914e-26
-1.7071810294143e-26
-1.9500941593778e-26
-2.1745401234952e-26
-2.3647449496554e-26
-2.5045073677236e-26
-2.5785617735879e-26
-2.5740519141945e-26
-2.4819523502625e-26
-2.2982614947083e-26
-2.0248020298301e-26
-1.6695022577033e-26
-1.2460913006641e-26
-7.7321375966048e-27
-2.7304439295437e-27
2.3045125167083e-27
7.1341894780354e-27
1.1539710035929e-26
1.5337960093355e-26
1.8393624288586e-26
2.0626130923598e-26
2.2011154682361e-26
1.9793352412829e-25
0
0
0
0
3.6533473764606e-80
2.1225561853186e-68
-1.212584659939e-66
-2.8232679042955e-64
-1.8983687536173e-62
-7.7827137760444e-61
-2.3142055860314e-59
-5.4095613853621e-58
-1.0420459425023e-56
-1.7065407368629e-55
-2.4294392919393e-54
-3.0570493384494e-53
-3.4447200727516e-52
-3.5122848822354e-51
-3.2683200107551e-50
-2.7955111136439e-49
-2.211213474492e-48
-1.6258943239857e-47
-1.1163683705056e-46
-7.1861274557901e-46
-4.3518378201456e-45
-2.4870910587197e-44
-1.3451210634891e-43
-6.9019355847643e-43
-3.3674877114061e-42
-1.5655358071502e-41
-6.9480060456379e-41
-2.9488152481439e-40
-1.1987121047596e-39
-4.6741058865534e-39
-1.7506018260277e-38
-6.3056188963597e-38
-2.1868939903103e-37
-7.3107368602657e-37
-2.3581453783401e-36
-7.3463279662405e-36
-2.2123249269204e-35
-6.4457191554417e-35
-1.8183652987103e-34
-4.9705192804108e-34
-1.3174633856595e-33
-3.3882846623923e-33
-8.4605475503014e-33
-2.0523547002145e-32
-4.8393414996132e-32
-1.109767088225e-31
-2.4763329183469e-31
-5.3793093348673e-31
-1.1381051593084e-30
-2.346198216732e-30
-4.7146770124247e-30
-9.2387562821093e-30
-1.766078580007e-29
-3.2945315454857e-29
-5.9994087237144e-29
-1.0668180885921e-28
-1.8529665926639e-28
-3.1445644017661e-28
-5.2153290889486e-28
-8.4554376297135e-28
-1.3403570575581e-27
-2.0778955166588e-27
-3.1508372284409e-27
-4.6741071766057e-27
-6.7842789777137e-27
-9.6359100335455e-27
-1.3393875854721e-26
-1.8221006944725e-26
-2.4260801845078e-26
-3.1615694157511e-26
-4.0322240151715e-26
-5.0325559278895e-26
-6.1456241343865e-26
-7.3413536072921e-26
-8.5758768136796e-26
-9.7922421688862e-26
-1.0922714971202e-25
-1.1892714434335e-25
-1.26262050834e-25
-1.3052123752674e-25
-1.3111214130874e-25
-1.2762499348332e-25
-1.1988582198115e-25
-1.0799040063748e-25
-9.2313753976714e-26
-7.3492693929319e-26
-5.2382250109826e-26
-2.9990234869362e-26
-7.397021575772e-27
1.4330540309793e-26
3.422157572646e-26
5.1471258452327e-26
6.5491688601897e-26
7.593948760413e-26
8.2719113158865e-26
7.6172953475792e-25
0
0
0
0
3.1327387819539e-79
1.3902581677533e-67
-5.138739376332e-66
-1.5164584600013e-63
-1.0467786201425e-61
-4.3262202874655e-60
-1.2897771780456e-58
-3.0156810834328e-57
-5.8034338251288e-56
-9.4879949479475e-55
-1.3477907678582e-53
-1.6917712231863e-52
-1.901165026932e-51
-1.9329114719493e-50
-1.7932883964721e-49
-1.5291468793138e-48
-1.2057265147332e-47
-8.8372005724763e-47
-6.0480171747922e-46
-3.8803055657375e-45
-2.3420404780115e-44
-1.3339862190665e-43
-7.1903148597297e-43
-3.6768380577137e-42
-1.7877955911372e-41
-8.2827591416905e-41
-3.6632363092606e-40
-1.5493089228959e-39
-6.2760211437864e-39
-2.4386007452559e-38
-9.1011438244185e-38
-3.2666056373893e-37
-1.1288887889876e-36
-3.760392339022e-36
-1.208607725114e-35
-3.7516485935967e-35
-1.1257245250615e-34
-3.267987314319e-34
-9.1856597899579e-34
-2.5017608350652e-33
-6.606813852092e-33
-1.6929250291688e-32
-4.2116825886203e-32
-1.0178976926223e-31
-2.3912666150021e-31
-5.4633542905866e-31
-1.2145585870352e-30
-2.6285388167119e-30
-5.5404583214194e-30
-1.1378917254644e-29
-2.2780289508589e-29
-4.4472408864012e-29
-8.4694767757845e-29
-1.5740193852334e-28
-2.85559173861e-28
-5.0588501361407e-28
-8.7540006124374e-28
-1.4800697774716e-27
-2.4456420929741e-27
-3.9504388956008e-27
-6.2393378307928e-27
-9.6374796760785e-27
-1.4561404840479e-26
-2.1524468426499e-26
-3.1132680477341e-26
-4.4066795856536e-26
-6.1046791351936e-26
-8.2776044387711e-26
-1.0986470215983e-25
-1.4273486974329e-25
-1.815140945502e-25
-2.25927680604e-25
-2.7520391445606e-25
-3.2800849300786e-25
-3.8242451600373e-25
-4.3599176993277e-25
-4.8581351816807e-25
-5.287309913475e-25
-5.6155617616406e-25
-5.8134373973343e-25
-5.8567467195112e-25
-5.7291910693953e-25
-5.4244504251695e-25
-4.9474388435633e-25
-4.3145261795914e-25
-3.5526481364883e-25
-2.6973676333162e-25
-1.7900863042347e-25
-8.7471404393e-26
5.8302528820162e-28
8.1290174031004e-26
1.5148531901844e-25
2.0889424679772e-25
2.522283194992e-25
2.8118236178844e-25
2.6521064201883e-24
0
0
0
0
2.3423843117034e-78
8.1730513685315e-67
-1.6748992009067e-65
-7.3193317967505e-63
-5.2122167130446e-61
-2.1744819204496e-59
-6.5035139936517e-58
-1.5214788834119e-56
-2.9256653438847e-55
-4.7756228629616e-54
-6.7698085299296e-53
-8.4770980187935e-52
-9.5010923871193e-51
-9.6324791056184e-50
-8.9102831007205e-49
-7.5746337572285e-48
-5.9538433433336e-47
-4.3498203596677e-46
-2.9672528571408e-45
-1.8974621998437e-44
-1.1414343178955e-43
-6.4795240954811e-43
-3.4806678371224e-42
-1.7737855695288e-41
-8.5950128227529e-41
-3.9682287423018e-40
-1.7489250681053e-39
-7.3709082472761e-39
-2.9753400452241e-38
-1.1520065691454e-37
-4.2841565086355e-37
-1.5321962256346e-36
-5.2760699173669e-36
-1.7511676197336e-35
-5.6080084564423e-35
-1.7344740475342e-34
-5.1855380176963e-34
-1.499863836999e-33
-4.2003491944288e-33
-1.1397727016393e-32
-2.9988578387606e-32
-7.6557349720314e-32
-1.8975108567804e-31
-4.5688455532537e-31
-1.0692972487113e-30
-2.4338425757891e-30
-5.3902516243027e-30
-1.1621373112701e-29
-2.4402624642214e-29
-4.9926973166645e-29
-9.9571036662813e-29
-1.9364238394211e-28
-3.6736630726989e-28
-6.8011660122871e-28
-1.2291311582432e-27
-2.1691109165205e-27
-3.7390756860678e-27
-6.2975050367117e-27
-1.0365970144065e-26
-1.6680018406246e-26
-2.6243922270275e-26
-4.0383085513785e-26
-6.078464134864e-26
-8.9513543137514e-26
-1.2898895563794e-25
-1.8190491381368e-25
-2.5108100049473e-25
-3.3923402444446e-25
-4.4867075712022e-25
-5.8091441991572e-25
-7.3629262795597e-25
-9.135297874607e-25
-1.1093996562489e-24
-1.3185007243415e-24
-1.5332153581876e-24
-1.7439013941211e-24
-1.9393418514537e-24
-2.1074465373997e-24
-2.2361625145987e-24
-2.3145143232923e-24
-2.3336658591232e-24
-2.2878798030962e-24
-2.1752516591372e-24
-1.9981152116835e-24
-1.7630527397475e-24
-1.4804916489745e-24
-1.1639220056211e-24
-8.2881845012935e-25
-4.9138734356072e-25
-1.6727996891898e-25
1.2958756301875e-25
3.8798662367885e-25
6.0001453472015e-25
7.6137734914995e-25
8.7132120345383e-25
8.4211460446999e-24
0
0
0
0
1.5514279129631e-77
4.3558717113794e-66
-2.9627499737164e-65
-3.1948886586374e-62
-2.3618893836755e-60
-9.9622175953714e-59
-2.9910446883491e-57
-7.0039272382095e-56
-1.3460244875891e-54
-2.1939972064601e-53
-3.1040149156195e-52
-3.8777277965967e-51
-4.3348557937564e-50
-4.3825666430651e-49
-4.0421249615169e-48
-3.4257843754597e-47
-2.6843445399067e-46
-1.9548985572842e-45
-1.3292127705753e-44
-8.471868685363e-44
-5.0793176516392e-43
-2.8736282703633e-42
-1.5384013632357e-41
-7.8129645659067e-41
-3.7727512790276e-40
-1.73578303941e-39
-7.6233871537646e-39
-3.2016019881779e-38
-1.2877884115097e-37
-4.9684030020702e-37
-1.8410849551388e-36
-6.5608854438425e-36
-2.2510818517872e-35
-7.444480556719e-35
-2.3753885123234e-34
-7.3199239499934e-34
-2.1804136097012e-33
-6.2834298683266e-33
-1.7531691828121e-32
-4.7396232598042e-32