/*--------------------------------*- C++ -*----------------------------------*\
  =========                 |
  \\      /  F ield         | OpenFOAM: The Open Source CFD Toolbox
   \\    /   O peration     | Website:  https://openfoam.org
    \\  /    A nd           | Version:  7
     \\/     M anipulation  |
\*---------------------------------------------------------------------------*/
FoamFile
{
    version     2.0;
    format      ascii;
    class       volScalarField;
    location    "0.8";
    object      alpha.water;
}
// * * * * * * * * * * * * * * * * * * * * * * * * * * * * * * * * * * * * * //

dimensions      [0 0 0 0 0 0 0];

internalField   nonuniform List<scalar> 
6000
(
0
0
0
0
0
0
0
0
0
0
0
0
0
0
0
0
0
0
0
0
0
0
0
0
0
0
0
0
0
0
0
0
0
0
0
0
0
0
0
0
0
0
0
0
0
0
0
0
0
0
0
0
0
0
0
0
0
0
0
0
0
0
0
0
0
0
0
0
0
0
0
0
0
0
0
0
0
0
0
0
0
0
0
0
0
0
0
0
0
0
0
0
0
0
0
0
0
0
0
0
0
0
0
0
0
0
0
0
0
0
0
0
0
0
0
0
0
0
0
0
0
0
0
0
0
0
0
0
0
0
0
0
0
0
0
0
0
0
0
0
0
0
0
0
0
0
0
0
0
0
0
0
0
0
0
0
0
0
0
0
0
0
0
0
0
0
0
0
0
0
0
0
0
0
0
0
0
0
0
0
0
0
0
0
0
0
0
0
0
0
0
0
0
0
0
0
0
0
0
0
0
0
0
0
0
0
0
0
0
0
0
0
0
0
0
0
0
0
0
0
0
0
0
0
0
0
0
0
0
0
0
0
0
0
0
0
0
0
0
0
0
0
0
0
0
0
0
0
0
0
0
0
0
0
0
0
0
0
0
0
0
0
0
0
0
0
0
0
0
0
0
0
0
0
0
0
0
0
0
0
0
0
0
0
0
0
0
0
0
0
0
0
0
0
0
0
0
0
0
0
0
0
0
0
0
0
0
0
0
0
0
0
0
0
0
0
0
0
0
0
0
0
0
0
0
0
0
0
0
0
0
0
0
0
0
0
0
0
0
0
0
0
0
0
0
0
0
0
0
0
0
0
0
0
0
0
0
0
0
0
0
0
0
0
0
0
0
0
0
0
0
0
0
0
0
0
0
0
0
0
0
0
0
0
0
0
0
0
0
0
0
0
0
0
0
0
0
0
0
0
0
0
0
0
0
0
0
0
0
3.8206705160869e-39
9.8982361322523e-38
1.2623484363078e-36
1.0562504709788e-35
6.5209606021135e-35
3.1673088885082e-34
1.2603398359676e-33
4.2247161656401e-33
1.2174156353299e-32
3.0628001267038e-32
6.8092950417962e-32
1.3509101689465e-31
2.4108434849668e-31
3.896102466549e-31
5.7340649643636e-31
7.722556457665e-31
9.5572637007803e-31
1.0908165952266e-30
1.1518375539003e-30
1.128399080731e-30
1.0281029533127e-30
8.7309729700323e-31
6.9244680778825e-31
5.1376182150888e-31
3.5715979167967e-31
2.3296485929979e-31
1.4275227196495e-31
8.2265957379066e-32
4.4630153369626e-32
2.2813178854448e-32
1.0995767743786e-32
5.0007897430149e-33
2.1472188176433e-33
8.7086774194784e-34
3.3376703898907e-34
1.2091830686278e-34
4.1419582595077e-35
1.3417088323989e-35
4.1104533963231e-36
1.190985729379e-36
3.2634825616643e-37
8.4557461843054e-38
2.0711973695211e-38
4.7946502232426e-39
1.0485476933123e-39
2.1652436525722e-40
4.2195311324971e-41
7.7547919991947e-42
1.3430439078417e-42
2.1899957403171e-43
3.3589111197083e-44
4.8402931721113e-45
6.5451685819195e-46
8.2935678295113e-47
9.8324125591222e-48
1.088749565388e-48
1.1238601762035e-49
1.079161486088e-50
9.6165347412924e-52
7.9315421569175e-53
6.0369308949738e-54
4.2262008061156e-55
2.7110202500767e-56
1.5868022056603e-57
8.4337983384504e-59
4.0478845531936e-60
1.7432219015736e-61
6.685576861767e-63
2.2632152527893e-64
6.6906125336536e-66
1.704724979135e-67
3.682270267729e-69
6.5998439984648e-71
9.5343338972569e-73
1.0647739081394e-74
8.6099715534772e-77
4.4769409783667e-79
1.1218052891346e-81
0
0
0
0
0
0
0
0
0
0
0
0
0
0
0
0
0
0
0
0
-3.5319297997506e-29
-7.4419007596814e-28
-7.6013189688277e-27
-4.9804515812985e-26
-2.3231830474543e-25
-8.0172292591317e-25
-2.0089818522273e-24
-3.0843395242616e-24
9.1598388551176e-25
2.5453318351156e-23
1.0499047844546e-22
2.9840279547887e-22
6.8262533924259e-22
1.3280437125659e-21
2.2596483782142e-21
3.4218360835616e-21
4.6704371347671e-21
5.8046003101339e-21
6.6281475086736e-21
7.011262770159e-21
6.9233945304853e-21
6.426581912615e-21
5.6404878653854e-21
4.7009762917655e-21
3.7293818613628e-21
2.8176209901655e-21
2.0251711330518e-21
1.3818604699356e-21
8.9286297367666e-22
5.4490986313256e-22
3.1341151719342e-22
1.6957796879524e-22
8.6195968077552e-23
4.1117474030165e-23
1.8393775996398e-23
7.7124192809494e-24
3.0297729917627e-24
1.114757011526e-24
3.8402198875013e-25
1.2381667286826e-25
3.7347598784409e-26
1.0533682588119e-26
2.776227913536e-27
6.8320534457091e-28
1.5684258590603e-28
3.3551404698448e-29
6.6791394168764e-30
1.2354425539396e-30
2.1194947417996e-31
3.3653888622822e-32
4.9336287673075e-33
6.6586478860645e-34
8.2460805543343e-35
9.3337904569032e-36
9.6122681902398e-37
8.9576085897775e-38
7.5047701713178e-39
5.6085921575087e-40
3.7030705605276e-41
2.1342310538526e-42
1.0573458320633e-43
4.4125346658196e-45
1.5085663832551e-46
4.05743747382e-48
8.0509498289413e-50
1.0478878249748e-51
6.7116554117031e-54
5.3185269077542e-60
2.073103101933e-61
7.1308222407012e-63
2.1414268364004e-64
5.5412850594843e-66
1.2153153829241e-67
2.2111874341958e-69
3.2419407975925e-71
3.6736857926884e-73
3.0136021074671e-75
1.5893420924524e-77
4.0384990408846e-80
0
0
0
0
0
0
0
0
0
0
0
0
0
0
0
0
0
0
0
0
-1.5667920926455e-27
-3.6498417629841e-26
-4.1671382536982e-25
-3.1071595809236e-24
-1.701098366883e-23
-7.2890943456113e-23
-2.5443868202836e-22
-7.4346973101202e-22
-1.854010542569e-21
-4.0015726340117e-21
-7.5509103924974e-21
-1.254044272002e-20
-1.8386243721647e-20
-2.3753304871423e-20
-2.6758355361203e-20
-2.5515334052791e-20
-1.8836743981455e-20
-6.792828778576e-21
9.1236273039917e-21
2.6312443519009e-20
4.1755103149893e-20
5.2836725881339e-20
5.8020183830004e-20
5.715343736026e-20
5.1334367984322e-20
4.242772910359e-20
3.24498942887e-20
2.3052796356464e-20
1.5252240798101e-20
9.4169091004131e-21
5.4340683351587e-21
2.9344619808975e-21
1.4844321601897e-21
7.0400366034965e-22
3.1321738194492e-22
1.3078826213095e-22
5.1269760056328e-23
1.8869577997636e-23
6.5197419833293e-24
2.1141914396129e-24
6.4313389822832e-25
1.8340805734765e-25
4.899270731994e-26
1.2246043244321e-26
2.8607835363712e-27
6.2371836477364e-28
1.2670903170947e-28
2.3941332284886e-29
4.1986738401483e-30
6.8183917795285e-31
1.022595380992e-31
1.4120915687709e-32
1.7891705172473e-33
2.0717143654253e-34
2.1820774440653e-35
2.0791626536425e-36
1.7805289787259e-37
1.3596724557723e-38
9.1698094482126e-40
5.396424395454e-41
2.7289684341781e-42
1.162092173692e-43
4.0527224718931e-45
1.1115488958641e-46
2.2484735260943e-48
2.9825920250109e-50
1.9463627549834e-52
7.9760507495134e-59
3.1607069378914e-60
1.1049791271118e-61
3.3717617378034e-63
8.8632880827704e-65
1.9742359260238e-66
3.6471992569016e-68
5.4283044235995e-70
6.2429599986525e-72
5.1964988492739e-74
2.7802771032719e-76
7.1655312843473e-79
0
0
0
0
0
0
0
0
0
0
0
0
0
0
0
0
0
0
0
0
5.2014662060055e-29
-1.6828119369199e-26
-3.9675113560574e-25
-4.4800151900931e-24
-3.2934590782193e-23
-1.7803365553155e-22
-7.5548166705897e-22
-2.6205098125401e-21
-7.6355943005442e-21
-1.9059441185829e-20
-4.135830924718e-20
-7.8890609250587e-20
-1.333548125124e-19
-2.0078316710848e-19
-2.6973434380956e-19
-3.2247273529852e-19
-3.398249776452e-19
-3.0833759624422e-19
-2.2653888672688e-19
-1.0699817970024e-19
2.7132733267325e-20
1.4956864215198e-19
2.3897988478947e-19
2.8449647510077e-19
2.8699753831713e-19
2.5649870869023e-19
2.0734280596509e-19
1.5333724629258e-19
1.0448793245036e-19
6.5934395501734e-20
3.8675736751509e-20
2.1153490854419e-20
1.081548953429e-20
5.1800113953992e-21
2.3277457815281e-21
9.8256299432631e-22
3.8986163349494e-22
1.45449382094e-22
5.1019330311759e-23
1.6819770337626e-23
5.2083963386429e-24
1.5136888951876e-24
4.1246989294201e-25
1.0526230670713e-25
2.5124964895901e-26
5.6006150175223e-27
1.1639118643837e-27
2.2506955165751e-28
4.0408757802301e-29
6.7193271628076e-30
1.0319554862284e-30
1.4592075924067e-31
1.8929706577775e-32
2.2437037622065e-33
2.4183978438744e-34
2.3573669442226e-35
2.0645038705307e-36
1.6116432200675e-37
1.1107093658857e-38
6.67713271768e-40
3.4480010792351e-41
1.4987872106885e-42
5.3336878514977e-44
1.492268938936e-45
3.078266513663e-47
4.1627430084157e-49
2.7685250504361e-51
7.8367439990496e-58
3.1581118372859e-59
1.1224655420291e-60
3.4812530992933e-62
9.298679617502e-64
2.104092310164e-65
3.9478421844075e-67
5.9661997277078e-69
6.9656152165322e-71
5.8846394017673e-73
3.1947977835641e-75
8.3532426342184e-78
0
0
0
0
0
0
0
0
0
0
0
0
0
0
0
0
0
0
0
0
0
6.3407126602506e-28
-8.7670212053211e-26
-2.1166874129969e-24
-2.3746819037028e-23
-1.7253551556921e-22
-9.2148049672215e-22
-3.8669021161715e-21
-1.3274339311386e-20
-3.8280176030644e-20
-9.4487007349511e-20
-2.0238839398739e-19
-3.800383412049e-19
-6.3007127095119e-19
-9.263623440042e-19
-1.2101614047812e-18
-1.4040049198497e-18
-1.4413050664766e-18
-1.2964146273577e-18
-9.9665065183244e-19
-6.0943148701723e-19
-2.144142922839e-19
1.224116598682e-19
3.6201705571509e-19
4.9311717631996e-19
5.2617484469677e-19
4.8542332719133e-19
4.0083995297226e-19
3.0084395277964e-19
2.0686516288873e-19
1.3095994672158e-19
7.6607660284381e-20
4.1537216060187e-20
2.0934824002211e-20
9.8334014618172e-21
4.3146471823341e-21
1.7718310087053e-21
6.8194689937094e-22
2.46216449075e-22
8.3423294066787e-23
2.6523506423264e-23
7.9096132308991e-24
2.2107374252184e-24
5.7855636442258e-25
1.4159659887614e-25
3.236193687366e-26
6.8954832233951e-27
1.3671199663094e-27
2.5165349732221e-28
4.290081706633e-29
6.7540274792344e-30
9.7881916550616e-31
1.3010869618104e-31
1.5796978934307e-32
1.7435403726501e-33
1.7396553057993e-34
1.5588748395744e-35
1.2446523755803e-36
8.7697492478381e-38
5.387790833721e-39
2.8421874504767e-40
1.2616122892234e-41
4.5830664167211e-43
1.3084782959893e-44
2.7534096516124e-46
3.797076699388e-48
2.5744728324938e-50
5.6732995354686e-57
2.3257221486506e-58
8.4063865431945e-60
2.6506842569512e-61
7.1963771899312e-63
1.6546871564845e-64
3.1539998459744e-66
4.8411308993316e-68
5.7392600343614e-70
4.9222842392152e-72
2.7123340026481e-74
7.1961916251558e-77
0
0
0
0
0
0
0
0
0
0
0
0
0
0
0
0
0
0
0
0
0
5.095172807208e-39
3.8780263848293e-27
-2.9196419873018e-25
-7.3322894429182e-24
-8.2033743979872e-23
-5.8975227180045e-22
-3.1106623343934e-21
-1.2884535551791e-20
-4.3623741366465e-20
-1.2387633540536e-19
-3.0031426299201e-19
-6.2958586376393e-19
-1.152252592615e-18
-1.8545507968142e-18
-2.6419593400306e-18
-3.3543255455596e-18
-3.8249684243813e-18
-3.9405652305711e-18
-3.6536683413433e-18
-2.9618837465803e-18
-1.9180484104832e-18
-6.8090562686412e-19
4.8022156599098e-19
1.2914402076615e-18
1.6210900611514e-18
1.5344938120215e-18
1.2176099897428e-18
8.5332699061965e-19
5.4801118505694e-19
3.3127244982466e-19
1.9124857000447e-19
1.0561263619662e-19
5.5410868644614e-20
2.7383124082321e-20
1.2666176927969e-20
5.4677220271391e-21
2.201878394601e-21
8.2792701514479e-22
2.9101175189085e-22
9.5703800433521e-23
2.9458279262478e-23
8.4856002995465e-24
2.2861515341736e-24
5.7553545978192e-25
1.3522229218257e-25
2.9605382139232e-26
6.028997714814e-27
1.1395650301605e-27
1.9942225029964e-28
3.2219131996637e-29
4.7902284877946e-30
6.5299180480885e-31
8.1274296092294e-32
9.191936750712e-33
9.3938586208994e-34
8.6179471235797e-35
7.0413846014532e-36
5.0748460905391e-37
3.1877585805641e-38
1.7186490522895e-39
7.7938884537598e-41
2.8916813693803e-42
8.4330852119133e-44
1.8185162112846e-45
2.6618705075377e-47
3.1572737303828e-49
1.5645766956078e-50
1.629880148393e-51
1.5759887365576e-52
1.4108832337214e-53
1.1661062418953e-54
8.8696974654478e-56
6.1864006235324e-57
3.9404775800657e-58
2.2814522364224e-59
1.1942346416957e-60
5.6165772453407e-62
2.3560008149572e-63
8.7381329820393e-65
2.835535755648e-66
7.9470106642953e-68
1.8924896263442e-69
3.7487898069992e-71
6.0011773034919e-73
7.4474499034216e-75
6.711430270651e-77
3.9004902478044e-79
1.0953912033684e-81
0
0
0
0
0
0
0
0
0
0
0
0
6.7682116924298e-38
1.5824609159042e-26
-6.8584699393429e-25
-1.8413817091061e-23
-2.0656955412964e-22
-1.4718028380247e-21
-7.6649975469371e-21
-3.1290040969672e-20
-1.0422167485305e-19
-2.9045850984012e-19
-6.8894051190575e-19
-1.4082327166956e-18
-2.5076103498717e-18
-3.9305537560556e-18
-5.4920083944622e-18
-6.9616805272079e-18
-8.1722543806143e-18
-9.0055702998889e-18
-9.3060343686565e-18
-8.7489987004155e-18
-6.8660669656726e-18
-3.628652153365e-18
2.7164546196541e-20
2.7153804282091e-18
3.6866737109873e-18
3.2446045196039e-18
2.226149615357e-18
1.296976246114e-18
6.9190544756132e-19
3.6256543939056e-19
1.9357580552661e-19
1.0402807119445e-19
5.4329239555054e-20
2.6803772323471e-20
1.2316848328775e-20
5.2487435576894e-21
2.0750400209761e-21
7.6258278092671e-22
2.6105976989061e-22
8.3373360838854e-23
2.4857697361892e-23
6.9192300784725e-24
1.7972201466188e-24
4.3519909734512e-25
9.8118568067538e-26
2.0562073374799e-26
3.9971558413587e-27
7.1904254946443e-28
1.1935956973924e-28
1.8224639295828e-29
2.5501369727595e-30
3.2564939676947e-31
3.776840760868e-32
3.956134216671e-33
3.7180687915723e-34
3.11059126324e-35
2.2944039549741e-36
1.4743299826986e-37
8.1278401648323e-39
3.7677334597364e-40
1.4290578534648e-41
4.2705078772596e-43
9.6158110370664e-45
1.7361748974469e-46
5.8868750008085e-48
5.7152531879472e-49
6.1517296354583e-50
6.1520487878582e-51
5.7028074526636e-52
4.8873171392034e-53
3.8609618469059e-54
2.802443985726e-55
1.8620234969627e-56
1.1277558162768e-57
6.1964767942417e-59
3.0717248490588e-60
1.3650698406995e-61
5.3977756194611e-63
1.8823889487202e-64
5.727908114931e-66
1.5009692615764e-67
3.331635062335e-69
6.1309158587974e-71
9.0852013030748e-73
1.0397172269514e-74
8.6052428018467e-77
4.5731558068782e-79
1.1689399651486e-81
0
0
0
0
0
0
0
0
0
0
0
0
4.4119595102381e-37
4.831921849085e-26
-1.1660420033117e-24
-3.5357000365482e-23
-4.0136603865469e-22
-2.8426252758556e-21
-1.4626966354169e-20
-5.882209996566e-20
-1.9277312354048e-19
-5.2853791898856e-19
-1.2329980994196e-18
-2.4749493170056e-18
-4.3242258244406e-18
-6.6352798042891e-18
-9.0067350647764e-18
-1.0891892893172e-17
-1.1504287990247e-17
-8.9844495928409e-18
-8.9925784297519e-19
9.4392190024804e-18
1.113148411392e-17
-1.8378857900952e-19
-5.5825391393504e-18
4.5487167386393e-20
4.5313368356381e-18
4.7419084313818e-18
2.9541948046695e-18
1.3993551656665e-18
5.9921571084129e-19
2.7609828008316e-19
1.4530685623483e-19
8.0340806028948e-20
4.2802503604053e-20
2.1178780850281e-20
9.641964135587e-21
4.0400082958259e-21
1.5628535079481e-21
5.6012350957088e-22
1.8649982875217e-22
5.7790543697519e-23
1.6678577714508e-23
4.4832972820522e-24
1.1218470964956e-24
2.61049459852e-25
5.6406965871927e-26
1.1296588421859e-26
2.0920147990629e-27
3.5726881508591e-28
5.6086101476642e-29
8.0641237091489e-30
1.0575083822356e-30
1.2587716144767e-31
1.3524529058964e-32
1.3030313629905e-33
1.1169350823847e-34
8.4367365392003e-36
5.5489120769867e-37
3.1298382856156e-38
1.4842399147335e-39
5.7654223469363e-41
1.7789310876043e-42
4.3763777967444e-44
1.2072067162549e-45
8.4852408015954e-47
9.5890749862108e-48
1.0606577191213e-48
1.090254174903e-49
1.0390785866085e-50
9.1587093092582e-52
7.4447275968255e-53
5.5629001355641e-54
3.8073368612502e-55
2.376988177253e-56
1.347361499209e-57
6.8968877576308e-59
3.1682525511527e-60
1.2965856073699e-61
4.6861557386284e-63
1.4801452033813e-64
4.0332079234946e-66
9.3277404547073e-68
1.7925286620265e-69
2.7810177973224e-71
3.3416464009061e-73
2.913343325742e-75
1.6368868043394e-77
4.4419718675651e-80
0
0
0
0
0
0
0
0
0
0
0
0
0
1.881994148608e-36
1.1735766825816e-25
-1.3478996991427e-24
-5.2981384548256e-23
-6.1896735207352e-22
-4.3823355342616e-21
-2.233389334203e-20
-8.8610928623202e-20
-2.8688170653309e-19
-7.812380874684e-19
-1.8524390334308e-18
-3.93910071092e-18
-7.5561070034743e-18
-1.2744597523454e-17
-1.8186929023649e-17
-2.0900047282736e-17
-1.7572587135274e-17
-6.1033141938104e-18
7.5465177015429e-19
-1.5207196039169e-17
3.816391647149e-17
8.3266726846887e-17
0.0020076951337956
-5.5944832100252e-17
1.8368835600258e-17
7.7071904802389e-18
1.4424444035016e-18
6.5705750079055e-19
2.9101597664791e-19
1.5275457617753e-19
9.0672260654962e-20
5.2954268490567e-20
2.8546096214052e-20
1.4011318777446e-20
6.2694770000604e-21
2.5696478869391e-21
9.6963295789919e-22
3.3824986262872e-22
1.0939679073811e-22
3.2855790839729e-23
9.1693028920684e-24
2.3775682516571e-24
5.7240519719885e-25
1.2779925444431e-25
2.6416619204377e-26
5.0444363251651e-27
8.875440661282e-28
1.4343539439119e-28
2.1215023061858e-29
2.85987775371e-30
3.496955061632e-31
3.8570601858484e-32
3.8124367543079e-33
3.3506151084535e-34
2.5934187998425e-35
1.7469882268134e-36
1.0088935737022e-37
4.9000380496134e-39
1.9557197242598e-40
6.3238663426616e-42
1.8313161507082e-43
8.4106366573712e-45
8.4413306537997e-46
1.0095298604188e-46
1.1446733409505e-47
1.2060538326176e-48
1.1781570068205e-49
1.0643943219779e-50
8.8683474978816e-52
6.7927774372237e-53
4.7660742228579e-54
3.0508129432268e-55
1.7733396681013e-56
9.3103223040319e-58
4.3876673778686e-59
1.8425937808636e-60
6.8357251579937e-62
2.2169115758004e-63
6.2046574870876e-65
1.4744233533402e-66
2.9124066077898e-68
4.6461715405709e-70
5.7428120570219e-72
5.1522386919896e-74
2.9801118370298e-76
8.3286972516842e-79
0
0
0
0
0
0
0
0
0
0
0
0
0
0
5.9103112942228e-36
2.3528790601297e-25
-6.2957975561753e-25
-6.1030718345403e-23
-7.6087453915756e-22
-5.4474508824594e-21
-2.7653884165833e-20
-1.087515976739e-19
-3.5094384252404e-19
-9.6456542583021e-19
-2.4459379615426e-18
-5.9860467206061e-18
-1.3190223220135e-17
-2.3691615083955e-17
-3.2782465967042e-17
-3.2987984141776e-17
-2.6615630461371e-17
3.909202983608e-17
-1.0755285551056e-16
0.21705637051323
0.71759996797242
0.96650203420476
0.96907628892012
0.7401204242214
0.29382946890234
5.1315814512351e-19
3.6051706125039e-19
1.9510719682996e-19
1.1553947071357e-19
7.7648341037496e-20
5.1058842143851e-20
3.0476846627934e-20
1.6314264238163e-20
7.8667240310535e-21
3.4420396933684e-21
1.3762724607806e-21
5.0578090882951e-22
1.7154453592595e-22
5.383512485889e-23
1.5653573096452e-23
4.2189610507613e-24
1.0537053291093e-24
2.436529340787e-25
5.2088272995292e-26
1.0274692697429e-26
1.8654142995299e-27
3.1077876331021e-28
4.7343525970877e-29
6.5678397428119e-30
8.2580505501892e-31
9.3589530630921e-32
9.4982725427017e-33
8.56534240818e-34
6.7983695025716e-35
4.6937323859305e-36
2.7777761040729e-37
1.3840503380449e-38
5.7071649604028e-40
1.9815665161983e-41
7.329051874176e-43
5.1901610676544e-44
6.1404790621341e-45
7.5985165569173e-46
8.8211511044833e-47
9.5137955149957e-48
9.5115885665646e-49
8.7931397998845e-50
7.4957200986358e-51
5.8734506967873e-52
4.2153716718128e-53
2.7598202387565e-54
1.6406455994657e-55
8.8088330019989e-57
4.2451801427306e-58
1.8229823339402e-59
6.9153158219798e-61
2.2931662104064e-62
6.5621974713549e-64
1.594337454566e-65
3.2196952488813e-67
5.2509181539267e-69
6.6344972461594e-71
6.0839187038941e-73
3.5965244115292e-75
1.0272059943744e-77
0
0
0
0
0
0
0
0
0
0
0
0
0
0
0
1.4576273313724e-35
3.9884514504264e-25
1.4853178184681e-24
-4.8835467351001e-23
-7.2137940164306e-22
-5.366622440871e-21
-2.7498877776861e-20
-1.0836788161676e-19
-3.5436350694272e-19
-1.0052253692689e-18
-2.8400831959343e-18
-8.0659431814621e-18
-1.9228813789809e-17
-3.4461328003315e-17
-4.0705743208345e-17
-2.8903979215732e-17
4.5734643910121e-18
3.4694469519536e-18
0.39158087650325
0.99355058088038
0.99999999999982
0.99999999999971
0.9999999999997
0.99999999999977
0.99914986433537
0.50240044455766
5.7572754152524e-20
5.2421226306374e-20
4.6679817137816e-20
3.7222296559051e-20
2.5490658862018e-20
1.519629312731e-20
8.0118682433503e-21
3.7829087300901e-21
1.616330165791e-21
6.3006405895205e-22
2.253780933344e-22
7.4260477370548e-23
2.2588865898255e-23
6.3503188496958e-24
1.6502813826792e-24
3.9625052107158e-25
8.7809672973159e-26
1.7927725242357e-26
3.3644656419092e-27
5.7871969969839e-28
9.0926689421342e-29
1.2996906704606e-29
1.6822192241277e-30
1.9608543888628e-31
2.0451497492415e-32
1.8939317321092e-33
1.5426939560298e-34
1.0925671978705e-35
6.6333753997051e-37
3.3989827213913e-38
1.4603538141084e-39
5.6303058443498e-41
2.7990628025863e-42
2.6833906472875e-43
3.4551177384889e-44
4.3937899610818e-45
5.219275326678e-46
5.7582272499895e-47
5.8873804137599e-48
5.564662664114e-49
4.848784554864e-50
3.8827796663077e-51
2.847253280421e-52
1.9042664316878e-53
1.1562145969448e-54
6.3393134770186e-56
3.119220277104e-57
1.3673692489296e-58
5.2941534894226e-60
1.7915466440455e-61
5.2308803986403e-63
1.296463005483e-64
2.6703366183032e-66
4.4408857783435e-68
5.7204756375354e-70
5.3468840353481e-72
3.2210616756735e-74
9.3732546986662e-77
0
0
0
0
0
0
0
0
0
0
0
0
0
0
0
0
2.9406861000887e-35
5.8079215615117e-25
4.9705513457994e-24
-1.2316436892479e-23
-4.5267700051799e-22
-3.8473641285297e-21
-2.0687457176352e-20
-8.4116308121735e-20
-2.8877792678021e-19
-8.7577833897177e-19
-2.8192317339317e-18
-8.9270754818872e-18
-2.1652009676133e-17
-3.7129843984395e-17
-3.448645472157e-17
-6.298652548313e-18
-3.3177528483962e-17
0.23240038314716
0.9965168109711
0.99999999999978
0.99999999999961
0.99999999999949
0.99999999999947
0.99999999999957
0.99999999999976
0.9982155364164
0.32126597669502
1.2643091464364e-20
1.7730528962776e-20
1.5884069517076e-20
1.1108277246134e-20
6.5774568286998e-21
3.4099361526559e-21
1.5758565362837e-21
6.5751314087921e-22
2.4982863481328e-22
8.6927984782077e-23
2.7795105475836e-23
8.1833411155116e-24
2.2204058342797e-24
5.5524196786613e-25
1.2786852294893e-25
2.7080735003528e-26
5.2635042290729e-27
9.3635661006459e-28
1.5196077134633e-28
2.2410359598881e-29
2.9895161858826e-30
3.5879605917447e-31
3.8496251553342e-32
3.6643174707222e-33
3.0658164510792e-34
2.2293890614541e-35
1.3905902468578e-36
7.3531932882618e-38
3.3318111075758e-39
1.4819086943954e-40
9.9217403981533e-42
1.1553523535448e-42
1.5667806986599e-43
2.0425697968071e-44
2.4820705180844e-45
2.8003498279203e-46
2.9270252696957e-47
2.8274353050858e-48
2.5171627260078e-49
2.0588591390019e-50
1.5417056508155e-51
1.0526521494758e-52
6.5233600246603e-54
3.6496194922461e-55
1.8319877963527e-56
8.1909321571784e-58
3.233813912571e-59
1.1156212096778e-60
3.3199452147825e-62
8.3845214993195e-64
1.7592888833501e-65
2.9797566658219e-67
3.9081131420057e-69
3.7182822067714e-71
2.2794744126196e-73
6.7487550724394e-76
0
0
0
0
0
0
0
0
0
0
0
0
0
0
0
0
0
4.991462884865e-35
7.3393247121002e-25
9.084491015023e-24
4.1663850893411e-23
-5.3783424944162e-24
-1.2050750279895e-21
-8.826155239276e-21
-4.2511034612391e-20
-1.7314798984306e-19
-6.1137551994859e-19
-2.3086605313654e-18
-7.8505632070308e-18
-1.875038844238e-17
-2.9917676977621e-17
-3.8447587260928e-17
-2.0348854906243e-17
8.3266726846887e-17
0.73166623258276
0.99999999999986
0.99999999999967
0.9999999999995
0.99999999999938
0.99999999999936
0.99999999999946
0.99999999999965
0.99999999999988
0.80096547096887
3.9555437232756e-21
6.5442804144324e-21
6.0936428665594e-21
4.2726177193124e-21
2.5014251700688e-21
1.2728972386907e-21
5.7557333043494e-22
2.344510866815e-22
8.676721266834e-23
2.9331778761753e-23
9.0869641397595e-24
2.5845187423869e-24
6.7534323905902e-25
1.6209193653815e-25
3.5698329628932e-26
7.2014702407019e-27
1.3274566967848e-27
2.2289468384352e-28
3.396464442003e-29
4.6758675314799e-30
5.7850831096465e-31
6.3920681433601e-32
6.2601935265481e-33
5.3852502204628e-34
4.0253684072793e-35
2.584292192592e-36
1.4169375370507e-37
6.8795797449269e-39
3.6530320442437e-40
3.1776611815225e-41
4.1884660663201e-42
5.8981441018233e-43
7.8755870805441e-44
9.7897364169589e-45
1.1294231075129e-45
1.2067104778604e-46
1.1911145738064e-47
1.083215680977e-48
9.0476827784195e-50
6.9165355025776e-51
4.8197229739241e-52
3.0474444573467e-53
1.7390790985163e-54
8.9019210104226e-56
4.0575819421748e-57
1.6326972518053e-58
5.7391493419357e-60
1.7397386863639e-61
4.4743907466639e-63
9.558128718522e-65
1.6476745857758e-66
2.198799419274e-68
2.1279541713347e-70
1.3265884473746e-72
3.9930509213506e-75
0
0
0
0
0
0
0
0
0
0
0
0
0
0
0
0
0
0
7.2762153224676e-35
8.0920916342621e-25
1.2611035341914e-23
9.7311819035217e-23
4.8779430765017e-22
1.7601069417338e-21
4.4236763386255e-21
3.386377873749e-21
-4.4052417132529e-20
-2.9588394508551e-19
-1.4864442301351e-18
-5.4000465713771e-18
-1.253427371934e-17
-1.78802405451e-17
-3.1288483470081e-17
-4.4198108459126e-18
-2.1371793224034e-15
0.96477360626167
0.99999999999982
0.99999999999965
0.9999999999995
0.99999999999939
0.99999999999938
0.99999999999947
0.99999999999964
0.99999999999985
0.96423534322045
1.3168512235234e-21
2.2580494997412e-21
2.1111939853708e-21
1.467868316335e-21
8.4518255055274e-22
4.2147169746545e-22
1.8630446602225e-22
7.4001732702236e-23
2.663471621108e-23
8.7315053229519e-24
2.6152427279812e-24
7.1684185483296e-25
1.7989953180872e-25
4.131580333963e-26
8.6714782336139e-27
1.6597218014973e-27
2.888703275964e-28
4.5556213501722e-29
6.4818145224405e-30
8.277741698926e-31
9.4301969231749e-32
9.5130615859416e-33
8.4233394696502e-34
6.4807106044587e-35
4.2924257678303e-36
2.4558598400217e-37
1.3023211716531e-38
8.4376334715764e-40
9.0599210946063e-41
1.2969706917954e-41
1.8843161531527e-42
2.5763287642152e-43
3.2763123002513e-44
3.8653594577826e-45
4.221692322517e-46
4.258201408764e-47
3.9556912805196e-48
3.3738921736588e-49
2.6328471020281e-50
1.8722490124883e-51
1.2076662547035e-52
7.028590382897e-54
3.6680979593916e-55
1.7041386542289e-56
6.9870966490191e-58
2.5018726701388e-59
7.7232619985847e-61
2.0221850065481e-62
4.3964228671752e-64
7.7109025164538e-66
1.0466302411545e-67
1.0299410623825e-69
6.526871786725e-72
1.9965865377884e-74
0
0
0
0
0
0
0
0
0
0
0
0
0
0
0
0
0
0
0
9.2528478556391e-35
7.7887161718603e-25
1.4429065132873e-23
1.3742459615952e-22
8.765407041703e-22
4.1590231183202e-21
1.5170741803627e-20
4.0461567792699e-20
6.2212562748283e-20
-2.1087479415781e-20
-6.6567883649193e-19
-2.8127833396405e-18
-6.3438276575722e-18
-7.6883162220792e-18
-1.2093410493611e-17
-9.911904683343e-18
0.0029006778338252
0.96246302257508
0.99999999999984
0.9999999999997
0.99999999999958
0.9999999999995
0.9999999999995
0.99999999999958
0.99999999999972
0.9999999999999
0.90351244325921
4.2005627165417e-22
7.1795033522526e-22
6.6388937355492e-22
4.5380301550215e-22
2.5616002147094e-22
1.249556073712e-22
5.3898742508665e-23
2.0834975868639e-23
7.2766914586166e-24
2.3076748304003e-24
6.6647733504984e-25
1.755401306489e-25
4.2172556748408e-26
9.2338449783647e-27
1.8394261125449e-27
3.3252542126877e-28
5.4371132319091e-29
8.0080360343768e-30
1.0571405259807e-30
1.2433297102231e-31
1.2935164457724e-32
1.1803910511859e-33
9.3625391207746e-35
6.4168917358806e-36
3.8624933376544e-37
2.2837304709779e-38
1.814675163516e-39
2.2893279415301e-40
3.476980410423e-41
5.1959538709423e-42
7.2745088100698e-43
9.4660633970732e-44
1.1422647141135e-44
1.2754869117775e-45
1.3147884318825e-46
1.2477485420688e-47
1.0868057288904e-48
8.6578279047116e-50
6.2829101674293e-51
4.1344098376501e-52
2.453934674946e-53
1.3056457985239e-54
6.1821934496777e-56
2.5825721175531e-57
9.4189910052739e-59
2.9606614974721e-60
7.8908233912637e-62
1.7457332772073e-63
3.114749664415e-65
4.299452567152e-67
4.3012960631153e-69
2.7703391674895e-71
8.6109474751381e-74
0
0
0
0
0
0
0
0
0
0
0
0
0
0
0
0
0
0
0
0
1.039148852485e-34
6.5045852962823e-25
1.4051769672425e-23
1.5157013677322e-22
1.0634617632026e-21
5.4207764619618e-21
2.101580645668e-20
6.1078297057872e-20
1.2469697059496e-19
1.5526520366761e-19
-8.2411517888035e-20
-9.768256754668e-19
-2.2124090106703e-18
-2.2568041172264e-18
-1.5410818308939e-18
4.0321792621253e-18
8.3266726846887e-17
0.75345009982389
0.99999999999991
0.99999999999979
0.9999999999997
0.99999999999965
0.99999999999965
0.99999999999972
0.99999999999983
0.99999999999996
0.6914351509346
1.2535875643304e-22
2.1056030449535e-22
1.9067287133161e-22
1.2747493447389e-22
7.0306755912828e-23
3.3455640104461e-23
1.4045304740423e-23
5.2697570796801e-24
1.7809764798237e-24
5.4476554622557e-25
1.5121987035488e-25
3.8136222020931e-26
8.7363650331084e-27
1.815782419907e-27
3.4167163035512e-28
5.8031350511836e-29
8.8623403556117e-30
1.2111383938276e-30
1.4726040857005e-31
1.5820691689093e-32
1.4899507133015e-33
1.2206453780788e-34
8.6901525820308e-36
5.5590295534213e-37
3.7371052911724e-38
3.6057006816746e-39
5.1352184778651e-40
8.1655737477801e-41
1.2533215421666e-41
1.7970850769712e-42
2.3934698045798e-43
2.9547404494334e-44
3.373899819184e-45
3.5549499632149e-46
3.4470802409898e-47
3.066583660917e-48
2.4941819812955e-49
1.8473073215366e-50
1.2402183921377e-51
7.5076658115583e-53
4.0726642673197e-54
1.96545687073e-55
8.3656403494596e-57
3.1076784723374e-58
9.9463786139106e-60
2.6983762432232e-61
6.0746454160545e-63
1.1025227209513e-64
1.5475974549068e-66
1.5739359810483e-68
1.0302327332377e-70
3.2535738715908e-73
0
0
0
0
0
0
0
0
0
0
0
0
0
0
0
0
0
0
0
0
0
1.040911167861e-34
4.6281608555043e-25
1.1802100690628e-23
1.3990930466568e-22
1.0380865975709e-21
5.4750716898949e-21
2.17232163795e-20
6.4828774891891e-20
1.4226040835473e-19
2.255149317248e-19
2.06483311992e-19
-5.1317481833173e-20
-2.5732533898379e-19
-3.5178304684506e-19
-3.4758734259167e-19
3.6470417988606e-18
2.5437425580789e-17
0.27855147289182
0.99769412266624
0.99999999999989
0.99999999999983
0.99999999999979
0.9999999999998
0.99999999999985
0.99999999999993
0.99994351475558
0.28611878962628
1.229084311374e-11
1.594487755297e-11
9.885824082856e-12
3.8267706127321e-12
9.5244068584527e-13
1.4966925063837e-13
1.3606295515228e-14
5.4425182170816e-16
4.0157843175979e-25
1.1770409044906e-25
3.118959624029e-26
7.4784897406953e-27
1.621898340808e-27
3.1766697936068e-28
5.6046888811933e-29
8.8762633524763e-30
1.2561622970313e-30
1.5797336400438e-31
1.7537854882703e-32
1.7063544748965e-33
1.44667601297e-34
1.0747189497231e-35
7.3918640970669e-37
5.7360333874267e-38
6.5817228958419e-39
1.0272519740938e-39
1.6970765633157e-40
2.6736220791247e-41
3.9271774533804e-42
5.354977664711e-43
6.764855256034e-44
7.9009926171327e-45
8.5114324898419e-46
8.4344613070368e-47
7.6651657860153e-48
6.3662803059108e-49
4.8130807704486e-50
3.297226126788e-51
2.0359460907029e-52
1.1261553614172e-53
5.539771865927e-55
2.4026394694433e-56
9.0916015604897e-58
2.9630493594887e-59
8.1827822776641e-61
1.8745586130848e-62
3.4609901762554e-64
4.9403965542019e-66
5.1078954834748e-68
3.3979066309606e-70
1.0903081172888e-72
0
0
0
0
0
0
0
0
0
0
0
0
0
0
0
0
0
0
0
0
0
0
9.3759556152297e-35
2.673404454898e-25
8.5603340255318e-24
1.1111411500211e-22
8.6182223909055e-22
4.6558580714437e-21
1.8725427250151e-20
5.6553765366248e-20
1.2772474385417e-19