/*--------------------------------*- C++ -*----------------------------------*\
  =========                 |
  \\      /  F ield         | OpenFOAM: The Open Source CFD Toolbox
   \\    /   O peration     | Website:  https://openfoam.org
    \\  /    A nd           | Version:  7
     \\/     M anipulation  |
\*---------------------------------------------------------------------------*/
FoamFile
{
    version     2.0;
    format      ascii;
    class       volScalarField;
    location    "3.4";
    object      alpha.water;
}
// * * * * * * * * * * * * * * * * * * * * * * * * * * * * * * * * * * * * * //

dimensions      [0 0 0 0 0 0 0];

internalField   nonuniform List<scalar> 
6000
(
0
0
0
0
0
0
0
0
0
0
0
0
0
0
0
0
0
0
0
0
0
0
0
0
0
0
0
0
0
0
0
0
0
0
0
0
0
0
0
0
0
0
0
0
0
0
0
0
0
0
0
0
0
0
0
0
0
0
0
0
0
0
0
0
0
0
0
0
0
0
0
0
0
0
0
0
0
0
0
0
0
0
0
0
0
0
0
0
0
0
0
0
0
0
0
0
0
0
0
0
0
0
0
0
0
0
0
0
0
0
0
0
0
0
0
0
0
0
0
0
0
0
0
0
0
0
0
0
0
0
0
0
0
0
0
0
0
0
0
0
0
0
0
0
0
0
0
0
0
0
0
0
0
0
0
0
0
0
0
0
0
0
0
0
0
0
0
0
0
0
0
0
0
0
0
0
0
0
0
0
0
0
0
0
0
0
0
0
0
0
0
0
0
0
0
0
0
0
0
0
0
0
0
0
0
0
0
0
0
0
0
0
0
0
0
0
0
0
0
0
0
0
0
0
0
0
0
0
0
0
0
0
0
0
0
0
0
0
0
0
0
0
0
0
0
0
0
0
0
0
0
0
0
0
0
0
0
0
0
0
0
0
0
0
0
0
0
0
0
0
0
0
0
0
0
0
0
0
0
0
0
0
0
0
0
0
0
0
0
0
0
0
0
0
0
0
0
0
0
0
0
0
0
0
0
0
0
0
0
0
0
0
0
0
0
0
0
0
0
0
0
0
0
0
0
0
0
0
0
0
0
0
0
0
0
0
0
0
0
0
0
0
0
0
0
0
0
0
0
0
0
0
0
0
0
0
0
0
0
0
0
0
0
0
0
0
0
0
0
0
0
0
0
0
0
0
0
0
0
0
0
0
0
0
0
0
0
0
0
0
0
0
0
0
0
0
0
0
0
0
0
0
0
0
0
0
0
0
0
1.3327081078217e-81
1.4577277205892e-79
7.9180538255074e-78
2.857645791806e-76
7.7086149983207e-75
1.6569388008587e-73
2.9574281295562e-72
4.5078602679702e-71
5.989884825148e-70
7.0481766051119e-69
7.4358230511806e-68
7.1044818011115e-67
6.1984129250399e-66
4.9727028050486e-65
3.690209887924e-64
2.5459907535175e-63
1.6403731990479e-62
9.9084834486505e-62
5.6304291512098e-61
3.0191421955401e-60
1.5318972444386e-59
7.3733022206205e-59
3.3741040217438e-58
1.4709913243377e-57
6.1211399413362e-57
2.4354120257883e-56
9.2793739670914e-56
3.3908316545802e-55
1.1899389242785e-54
4.015327517096e-54
1.3043812118574e-53
4.0836720232794e-53
1.2334022443414e-52
3.5973534550247e-52
1.0140923662645e-51
2.7653895078225e-51
7.3007369717814e-51
1.8673954784994e-50
4.631001306538e-50
1.1142328694554e-49
2.602657147581e-49
5.9055689637473e-49
1.3024502645146e-48
2.7935305842876e-48
5.8299631798981e-48
1.1844443032079e-47
2.3437231637855e-47
4.5189562082554e-47
8.493732672492e-47
1.5569269413815e-46
2.7843213381753e-46
4.8597921495383e-46
8.2817471861513e-46
1.3784281258175e-45
2.2415614518385e-45
3.5625556703938e-45
5.5354397861277e-45
8.4110886614288e-45
1.2502207303612e-44
1.8183431603652e-44
2.5884246166513e-44
3.6072602682557e-44
4.9227688633441e-44
6.5801413563207e-44
8.6169807976252e-44
1.1057730463026e-43
1.3907887987347e-43
1.7148698411058e-43
2.0733046546858e-43
2.4583367944567e-43
2.8592200915249e-43
3.2625766847318e-43
3.6530617511139e-43
4.0143047471151e-43
4.3300430955464e-43
4.5853435247139e-43
4.7677827616645e-43
4.8684504133292e-43
4.8826747196981e-43
4.8103694440705e-43
4.6559872146408e-43
4.4280760715947e-43
4.1385064893906e-43
3.8014670283367e-43
3.4323379563767e-43
3.0465656415412e-43
2.6586527967509e-43
2.281343500667e-43
1.9250585452794e-43
1.5975919380187e-43
5.6104724532692e-43
0
0
0
0
0
0
0
-1.233262910412e-71
-1.2859275899121e-69
-6.6753444684845e-68
-2.3000474505527e-66
-5.9173371699111e-65
-1.2123712238814e-63
-2.0604138225276e-62
-2.9872676143724e-61
-3.7713919909483e-60
-4.2113698424193e-59
-4.2109014080814e-58
-3.8076350149608e-57
-3.1390180531767e-56
-2.3753796863125e-55
-1.6594152301243e-54
-1.0754060676011e-53
-6.4922392249704e-53
-3.6641708676396e-52
-1.9393291484064e-51
-9.6508060511745e-51
-4.5256033417824e-50
-2.003486655454e-49
-8.3853613170905e-49
-3.3214932118651e-48
-1.2458683156589e-47
-4.4253432417652e-47
-1.4874798388897e-46
-4.7231706520749e-46
-1.4121053148932e-45
-3.9518433898125e-45
-1.0242598975964e-44
-2.4083432938883e-44
-4.9038561702307e-44
-7.5061676455779e-44
-2.3189169064485e-44
4.4210473680236e-43
2.4795652033192e-42
9.6448771337795e-42
3.1977220711633e-41
9.6017553582465e-41
2.6813740878942e-40
7.0635296898874e-40
1.7704075891918e-39
4.245957391783e-39
9.7828652630359e-39
2.1718670265889e-38
4.656640294798e-38
9.6600548157441e-38
1.9418098284207e-37
3.7870616111008e-37
7.1735860657672e-37
1.3210447127073e-36
2.3670485468415e-36
4.1297911288164e-36
7.0205615030465e-36
1.1636011958572e-35
1.8813477123199e-35
2.9688774869821e-35
4.5749226673202e-35
6.8871557104887e-35
1.0133168184677e-34
1.4577193828771e-34
2.0511188926423e-34
2.823921651634e-34
3.8054729609947e-34
5.0211296845093e-34
6.4888476499164e-34
8.2155764603022e-34
1.0193860725048e-33
1.2399114097268e-33
1.4788039774504e-33
1.729860480546e-33
1.9851834055546e-33
2.2355485602355e-33
2.4709428826342e-33
2.6812305577221e-33
2.8568853187574e-33
2.9897141454678e-33
3.0734948502786e-33
3.1044580747648e-33
3.0815619729037e-33
3.0065326486809e-33
2.8836714079922e-33
2.7194568212549e-33
2.5219915744088e-33
2.3003582391298e-33
2.0639529979978e-33
1.8218621678252e-33
1.5823346119028e-33
1.3523863278215e-33
1.1375545824818e-33
9.4180077313089e-34
3.3122639492281e-33
0
0
0
0
0
0
-5.4708521565817e-70
-5.877487595678e-68
-3.1435494695616e-66
-1.116031896792e-64
-2.9587586820188e-63
-6.2480344378542e-62
-1.0947166800156e-60
-1.6368650134338e-59
-2.1321839460469e-58
-2.4579252500189e-57
-2.5388149670955e-56
-2.3733771518755e-55
-2.0247388428703e-54
-1.587275348021e-53
-1.1502196462379e-52
-7.7439332887973e-52
-4.8653436979207e-51
-2.8636452980847e-50
-1.5844022361243e-49
-8.2656014914074e-49
-4.0768901477066e-48
-1.9058658205089e-47
-8.4630007193646e-47
-3.5768044352474e-46
-1.4414374119053e-45
-5.54813809524e-45
-2.0427177628256e-44
-7.2041345112639e-44
-2.4367980512263e-43
-7.9145650700671e-43
-2.4709674501413e-42
-7.4227039567866e-42
-2.1473227792488e-41
-5.9871668316715e-41
-1.6100811528985e-40
-4.1788342380966e-40
-1.0473375072787e-39
-2.5359965613277e-39
-5.9348292794532e-39
-1.3427317977534e-38
-2.9374247480489e-38
-6.2138145050949e-38
-1.2709019844805e-37
-2.5124023352139e-37
-4.7977513244823e-37
-8.8420590361318e-37
-1.5704293071465e-36
-2.6822677560482e-36
-4.3912926366238e-36
-6.8562770283619e-36
-1.0124999099305e-35
-1.3937455950381e-35
-1.7374062394077e-35
-1.8277913201512e-35
-1.2371461606792e-35
8.0082668094877e-36
5.5607576072904e-35
1.5038641507941e-34
3.2199501805266e-34
6.123932416318e-34
1.0782688936966e-33
1.7927689934558e-33
2.8459438814824e-33
4.3432560191198e-33
6.4015610317965e-33
9.1421566880759e-33
1.2680825026455e-32
1.7115244276416e-32
2.2510668571616e-32
2.8885283225508e-32
3.6197041746566e-32
4.4333978079515e-32
5.3109886304463e-32
6.2266836108362e-32
7.148526949148e-32
8.0401487177362e-32
8.863131770162e-32
9.5797832022113e-32
1.0156028302689e-31
1.0564113900954e-31
1.0784820832742e-31
1.0808940882491e-31
1.0637863556891e-31
1.0283228131319e-31
9.7657092811125e-32
9.1131031924699e-32
8.3579515696514e-32
7.5349751622086e-32
6.6785845843819e-32
5.8206987256192e-32
4.9890391314035e-32
4.2059941424531e-32
3.4880713719685e-32
1.2259166937658e-31
0
0
0
0
0
1.8162239102486e-71
-2.7123611560339e-68
-2.9900653959721e-66
-1.6029965333801e-64
-5.6731494947659e-63
-1.4962942885005e-61
-3.1407451147609e-60
-5.4677167342393e-59
-8.1221356713847e-58
-1.0510693750459e-56
-1.2038046045764e-55
-1.235529064754e-54
-1.1478706643335e-53
-9.7337648824906e-53
-7.5864808008837e-52
-5.4669315205243e-51
-3.6610435451433e-50
-2.2884942954124e-49
-1.3405038937546e-48
-7.3833528980517e-48
-3.8356280713317e-47
-1.884550689163e-46
-8.7789005721065e-46
-3.8860077558922e-45
-1.6378717793751e-44
-6.585256529972e-44
-2.5299829507817e-43
-9.3022847088911e-43
-3.2780074425746e-42
-1.1085399900453e-41
-3.601996193047e-41
-1.1258369374292e-40
-3.3884576564627e-40
-9.8297840015857e-40
-2.7510079163261e-39
-7.4337511534893e-39
-1.9410129004008e-38
-4.9007662227292e-38
-1.1972968584658e-37
-2.8320843271169e-37
-6.4896130383525e-37
-1.4413164844753e-36
-3.1040249646608e-36
-6.4847152777764e-36
-1.3146410857227e-35
-2.5870174503536e-35
-4.9427070500336e-35
-9.1700158291144e-35
-1.6521350994683e-34
-2.8905441732862e-34
-4.9103150786473e-34
-8.0967009161892e-34
-1.2952906944412e-33
-2.0089541208011e-33
-3.0175321145547e-33
-4.382675932839e-33
-6.1411657680083e-33
-8.2742440666071e-33
-1.0664298982447e-32
-1.3038869259789e-32
-1.4904475491395e-32
-1.5476135333735e-32
-1.3612218392141e-32
-7.7678809706122e-33
4.0172021104863e-33
2.408071236217e-32
5.5035661657604e-32
9.9597003067394e-32
1.603387807843e-31
2.3939549094564e-31
3.3813381292292e-31
4.5683182130767e-31
5.9440976936356e-31
7.4825744881226e-31
9.1419674560057e-31
1.0866043637251e-30
1.2587002525731e-30
1.4229848131553e-30
1.5717860815596e-30
1.6978605655365e-30
1.794981424471e-30
1.8584471660749e-30
1.8854532552752e-30
1.8752865351427e-30
1.8293252563757e-30
1.7508520595308e-30
1.6447095922952e-30
1.5168453100031e-30
1.3738012871596e-30
1.2222058766462e-30
1.0683175160589e-30
9.1765874396706e-31
7.7476305968229e-31
6.4304128427276e-31
2.2505834077232e-30
0
0
0
0
0
9.7695121841539e-70
-6.6517831742015e-67
-7.5888097221935e-65
-4.0961702778426e-63
-1.4504187196609e-61
-3.8183257842029e-60
-7.9906787366212e-59
-1.3860849434202e-57
-2.0508722348892e-56
-2.6430113654783e-55
-3.0142251454406e-54
-3.0803630149506e-53
-2.8494757477301e-52
-2.40592248531e-51
-1.8671726652267e-50
-1.3398389066246e-49
-8.9352318164915e-49
-5.5625599061771e-48
-3.245287035637e-47
-1.7804878173863e-46
-9.2143809924039e-46
-4.510549736026e-45
-2.0936554476172e-44
-9.235651327577e-44
-3.8797345399252e-43
-1.5549516476378e-42
-5.9559687068061e-42
-2.1836785565393e-41
-7.6745427265626e-41
-2.5889446664026e-40
-8.3933545113607e-40
-2.6181123016327e-39
-7.8658043693885e-39
-2.2784024520047e-38
-6.3687049478773e-38
-1.7194090292393e-37
-4.4870788203166e-37
-1.132740506164e-36
-2.7681108292429e-36
-6.5524906435353e-36
-1.503361262123e-35
-3.3450282740895e-35
-7.2217621995103e-35
-1.5135730230854e-34
-3.0808659887091e-34
-6.0929334007061e-34
-1.1711739836806e-33
-2.1887517440771e-33
-3.978056956133e-33
-7.0330429156274e-33
-1.2097306748332e-32
-2.0246819144132e-32
-3.2973679505166e-32
-5.225229346144e-32
-8.0558859629991e-32
-1.2080414680267e-31
-1.7613087608161e-31
-2.4952430211103e-31
-3.4319213912795e-31
-4.5769183269583e-31
-5.9082175620152e-31
-7.3634751707989e-31
-8.827000850278e-31
-1.0118487976952e-30
-1.0986049537742e-30
-1.1106338406271e-30
-1.0094289862492e-30
-7.5242198064293e-31
-2.9626388697436e-31
3.988678631819e-31
1.3642851028526e-30
2.6176616625948e-30
4.1584297304429e-30
5.9644084864138e-30
7.9903033194423e-30
1.0168527980624e-29
1.2412519953706e-29
1.4622381554077e-29
1.6692340482946e-29
1.8519242334392e-29
2.00111145292e-29
2.1094808542134e-29
2.1721842125478e-29
2.1871805956161e-29
2.1553027826082e-29
2.0800546614031e-29
1.9671779814061e-29
1.8240522864844e-29
1.6590063438259e-29
1.4806218069356e-29
1.2971012004846e-29
1.1157552666798e-29
9.4264292705875e-30
7.8237445359756e-30
2.7190776477328e-29
0
0
0
0
1.7709599372307e-81
2.6204304836067e-68
-1.0741182281826e-65
-1.2772812235571e-63
-6.9553607139426e-62
-2.4672107258545e-60
-6.4894519843879e-59
-1.3551633745364e-57
-2.3440701589822e-56
-3.4571186443396e-55
-4.4397555521815e-54
-5.0448670166644e-53
-5.1362391382602e-52
-4.7331482349597e-51
-3.9810088446428e-50
-3.0776250229744e-49
-2.1999026939818e-48
-1.4614415986931e-47
-9.0632573275748e-47
-5.2675579733723e-46
-2.8791040826618e-45
-1.484447358879e-44
-7.2398382721833e-44
-3.3483283083378e-43
-1.4717654365121e-42
-6.1609581241889e-42
-2.4607493480707e-41
-9.393737561182e-41
-3.432763250521e-40
-1.2025768604395e-39
-4.0441476375992e-39
-1.3071495040143e-38
-4.0654451152049e-38
-1.217982882666e-37
-3.5185078026186e-37
-9.8099140616902e-37
-2.6420426263801e-36
-6.8791775609668e-36
-1.7329531843506e-35
-4.2266982287906e-35
-9.9878167073709e-35
-2.2880583613928e-34
-5.0844692827804e-34
-1.0965899015012e-33
-2.2965980465181e-33
-4.6727697872476e-33
-9.2406756597025e-33
-1.7768438774839e-32
-3.3233202115938e-32
-6.0480912891208e-32
-1.0713164323781e-31
-1.84749785949e-31
-3.1025059950746e-31
-5.0743486071842e-31
-8.0842923946806e-31
-1.25466715716e-30
-1.8968913569738e-30
-2.7935281466563e-30
-4.0067215352361e-30
-5.5953793278617e-30
-7.6048261494474e-30
-1.005311469017e-29
-1.291471244762e-29
-1.610309851521e-29
-1.9454652772568e-29
-2.2716921898077e-29
-2.5544696226518e-29
-2.7507133693766e-29
-2.8108291549218e-29
-2.6821858551781e-29
-2.3138756023597e-29
-1.6623886747593e-29
-6.9760690738697e-30
5.9164371512802e-30
2.1933009343231e-29
4.0697848215149e-29
6.1582740613342e-29
8.3737717609688e-29
1.0614812001456e-28
1.277127473759e-28
1.473345678621e-28
1.6401347839953e-28
1.7693018717566e-28
1.8551151702048e-28
1.8947007174735e-28
1.8881479395762e-28
1.8383285150123e-28
1.7504688038731e-28
1.6315434640544e-28
1.489573217417e-28
1.3329119990646e-28
1.1695991584895e-28
1.0068340023935e-28
8.5060679232402e-29
7.0549648978663e-29
2.4294512089559e-28
0
0
0
0
9.7639741672263e-80
4.6729785798585e-67
-1.2820039534723e-64
-1.60235841129e-62
-8.8177868243414e-61
-3.1359984366358e-59
-8.245974429528e-58
-1.7190503733572e-56
-2.9662018567645e-55
-4.361939806742e-54
-5.5838520260522e-53
-6.3234042872612e-52
-6.4152978846261e-51
-5.8905255093774e-50
-4.9363264867957e-49
-3.8020396085592e-48
-2.7076006331203e-47
-1.791999190848e-46
-1.107171119794e-45
-6.4108529902205e-45
-3.4909559963848e-44
-1.7932418239872e-43
-8.713613096308e-43
-4.0151579867228e-42
-1.7584484344316e-41
-7.3344618783821e-41
-2.9189731126333e-40
-1.1103472406576e-39
-4.0433198664742e-39
-1.41155681526e-38
-4.730668545799e-38
-1.5238804382932e-37
-4.7237342717003e-37
-1.4105663097639e-36
-4.0617279685404e-36
-1.1288715061655e-35
-3.0309258495292e-35
-7.8679179890316e-35
-1.9762064430092e-34
-4.8062496606086e-34
-1.1325989035514e-33
-2.5877239749802e-33
-5.7357600873333e-33
-1.2340658898089e-32
-2.5786230865059e-32
-5.2354333763804e-32
-1.0333121866689e-31
-1.9833969071905e-31
-3.7038913190758e-31
-6.7318603628882e-31
-1.1911987209956e-30
-2.052747480154e-30
-3.4459133780188e-30
-5.6362547306106e-30
-8.9841633148186e-30
-1.3958239213825e-29
-2.1139493616818e-29
-3.1209830033544e-29
-4.491757320138e-29
-6.3013361694157e-29
-8.6152015411472e-29
-1.1476036173548e-28
-1.4887740944246e-28
-1.8798112461834e-28
-2.3082422029061e-28
-2.7530813513997e-28
-3.1842779066867e-28
-3.5631796210699e-28
-3.8442399205538e-28
-3.9780503864449e-28
-3.9155841366941e-28
-3.6133158751069e-28
-3.0386795394952e-28
-2.1751769496122e-28
-1.0263979925461e-28
3.8172208307528e-29
2.0008976129889e-28
3.7629456049985e-28
5.5845640108069e-28
7.3739645542602e-28
9.038612103595e-28
1.0493154933231e-27
1.1666601884931e-27
1.2507917124329e-27
1.2989438452252e-27
1.3107837627447e-27
1.2882676064007e-27
1.2352911516449e-27
1.1571936096064e-27
1.0601845960549e-27
9.5076518555312e-28
8.3520503631002e-28
7.1912156821181e-28
6.0718758739681e-28
5.0297406364876e-28
1.7133251388516e-27
0
0
0
0
2.6696816037437e-78
6.2326711922019e-66
-1.2027167684242e-63
-1.5971092441995e-61
-8.8976157155771e-60
-3.1749622967885e-58
-8.3494307307472e-57
-1.7381964921225e-55
-2.9925901125263e-54
-4.3888068264323e-53
-5.601217496835e-52
-6.3224933108786e-51
-6.3926219582714e-50
-5.8491916957644e-49
-4.8841974527989e-48
-3.748268307188e-47
-2.6595445589864e-46
-1.753711193194e-45
-1.0795068680572e-44
-6.2274840406464e-44
-3.3785113732715e-43
-1.7290357620406e-42
-8.3704514214328e-42
-3.8427430280423e-41
-1.6767181612383e-40
-6.967787886692e-40
-2.7628562036753e-39
-1.04711534817e-38
-3.7991636414461e-38
-1.3215079850882e-37
-4.4128938802515e-37
-1.4164136506712e-36
-4.3749428005197e-36
-1.3017824942006e-35
-3.7352954172513e-35
-1.0345227771637e-34
-2.7679972578605e-34
-7.160768652304e-34
-1.7924942031768e-33
-4.3448545771649e-33
-1.0204888940258e-32
-2.3239954227264e-32
-5.1347335777201e-32
-1.101291294694e-31
-2.2941363146393e-31
-4.643931558247e-31
-9.1391368298504e-31
-1.7493121487616e-30
-3.2579866192965e-30
-5.9063000926146e-30
-1.0425998747542e-29
-1.7926467984383e-29
-3.0031195093937e-29
-4.9030208686569e-29
-7.8030845651059e-29
-1.210774674355e-28
-1.831982091629e-28
-2.7032615854488e-28
-3.8903725184043e-28
-5.460519453475e-28
-7.4746633499932e-28
-9.9771319556713e-28
-1.2983037228043e-27
-1.6464617770315e-27
-2.033824803926e-27
-2.4454362116577e-27
-2.8592779350989e-27
-3.2465757990259e-27
-3.5730459179769e-27
-3.8011382208366e-27
-3.8931844456121e-27
-3.8151942506636e-27
-3.5408935743728e-27
-3.055495322929e-27
-2.3586605128897e-27
-1.466163520186e-27
-4.0991747248934e-28
7.6377299782569e-28
1.9976174688987e-27
3.2280488985536e-27
4.3906888547754e-27
5.4259115721575e-27
6.2838410486797e-27
6.9282079218093e-27
7.3386677788166e-27
7.5114071383913e-27
7.458097974737e-27
7.2034679425729e-27
6.7819014081354e-27
6.2335591935477e-27
5.6005005877067e-27
4.9232209064802e-27
4.2379022593903e-27
3.5745389335426e-27
2.9559657464369e-27
9.9470040594646e-27
0
0
0
0
4.846069277624e-77
6.6317328219168e-65
-9.198359731152e-63
-1.3166106204266e-60
-7.4406872637019e-59
-2.6659636786975e-57
-7.0145541046678e-56
-1.4586494105674e-54
-2.506210592689e-53
-3.6660675464464e-52
-4.6651890689194e-51
-5.24935802348e-50
-5.2900122576553e-49
-4.8237226584496e-48
-4.0137586349242e-47
-3.0692533012845e-46
-2.1698655748425e-45
-1.4255806323401e-44
-8.74290606388e-44
-5.0249436319795e-43
-2.7159755574278e-42
-1.3847833068022e-41
-6.678838116754e-41
-3.054678095732e-40
-1.3278681571745e-39
-5.497433244098e-39
-2.1716678094341e-38
-8.1997397855215e-38
-2.9639081077924e-37
-1.0271144244425e-36
-3.417010242298e-36
-1.0926686193952e-35
-3.3623932470247e-35
-9.9676991140799e-35
-2.8494753474698e-34
-7.862616736522e-34
-2.0959653446537e-33
-5.4022481140769e-33
-1.3473332210518e-32
-3.2538823200899e-32
-7.6146926798351e-32
-1.7278515130996e-31
-3.8038840620642e-31
-8.1294802214774e-31
-1.6875091884258e-30
-3.4040558779732e-30
-6.6760625553619e-30
-1.2735339248033e-29
-2.3640020697292e-29
-4.2717031433597e-29
-7.5166931418016e-29
-1.2884566497811e-28
-2.152100857786e-28
-3.5036881858963e-28
-5.5611631776975e-28
-8.6074990507137e-28
-1.2993877453052e-27
-1.9134383023007e-27
-2.748843540662e-27
-3.8527567845897e-27
-5.2684462575361e-27
-7.0284498223263e-27
-9.1463378266801e-27
-1.1607834728807e-26
-1.4362443311043e-26
-1.731702221102e-26
-2.0332894335055e-26
-2.3227929336936e-26
-2.5784603134222e-26
-2.7764303785887e-26
-2.8927206014414e-26
-2.9056019567581e-26
-2.798101491117e-26
-2.56031354908e-26
-2.191187510765e-26
-1.6995012334821e-26
-1.1038230155649e-26
-4.3139805738322e-27
2.8395333247638e-27
1.0046951428951e-26
1.6928518074526e-26
2.3133025024314e-26
2.8366992211864e-26
3.2416781744871e-26
3.5161446255599e-26
3.6575476410193e-26
3.6721994003027e-26
3.5738113072865e-26
3.3814996128612e-26
3.1175482822126e-26
2.8052069288158e-26
2.4667548090557e-26
2.1219910783963e-26
1.787231496866e-26
1.4748161314665e-26
4.8969134118935e-26
0
0
0
0
6.5725144497084e-76
5.8636003172293e-64
-5.8599462358671e-62
-9.2266450655679e-60
-5.3021506699194e-58
-1.9091022192729e-56
-5.0278633602418e-55
-1.0446079168666e-53
-1.7914857703276e-52
-2.6141768887062e-51
-3.3172539304792e-50
-3.721172317743e-49
-3.7378031159663e-48
-3.3968139310468e-47
-2.8166216382947e-46
-2.1461803874258e-45
-1.5118138701468e-44
-9.8962455461702e-44
-6.0469009650217e-43
-3.4625400403932e-42
-1.8645176814343e-41
-9.4709098753481e-41
-4.5506510983413e-40
-2.0734582796867e-39
-8.9791922816936e-39
-3.7033140311825e-38
-1.4573653793477e-37
-5.4817110446269e-37
-1.9738702418107e-36
-6.8140838331472e-36
-2.2582231898242e-35
-7.1934681042938e-35
-2.2050840183709e-34
-6.5117253088934e-34
-1.8543365540902e-33
-5.0969640536614e-33
-1.3534682285736e-32
-3.4750188898271e-32
-8.6332851493155e-32
-2.0769295962789e-31
-4.8416394374425e-31
-1.0943817618693e-30
-2.4000231796257e-30
-5.1095348631668e-30
-1.0565775290861e-29
-2.1232273870204e-29
-4.1483444447814e-29
-7.8837311554533e-29
-1.4579779250953e-28
-2.6248465985145e-28
-4.602045178441e-28
-7.8603244204864e-28
-1.3083076521988e-27
-2.122680425022e-27
-3.3579805767251e-27
-5.1807373463596e-27
-7.79673114029e-27
-1.1447605339293e-26
-1.6400451057624e-26
-2.2928551165183e-26
-3.1282259082645e-26
-4.1650348313779e-26
-5.4114037621444e-26
-6.8598061238275e-26
-8.4825248829116e-26
-1.0228263001717e-25
-1.2020758031164e-25
-1.3760156760678e-25
-1.5327644768057e-25
-1.6593412063438e-25
-1.7427518940582e-25
-1.7712687136451e-25
-1.7357581338387e-25
-1.630886524207e-25
-1.4560291627079e-25
-1.2157350711555e-25
-9.1965335274709e-26
-5.8189902383468e-26
-2.1991580433594e-26
1.4703384449963e-26
4.9956782157355e-26
8.198644205051e-26
1.0931229774441e-25
1.3086428061375e-25
1.4604184150914e-25
1.5472202897403e-25
1.5722003049779e-25
1.542118024504e-25
1.4663210202496e-25
1.3556256194196e-25
1.221235347848e-25
1.0738075954733e-25
9.2274166766546e-26
7.757209340316e-26
6.3850487136655e-26
2.0895903332846e-25
0
0
0
0
7.1032060976204e-75
4.4310136900314e-63
-3.1404480285843e-61
-5.6061987206241e-59
-3.2853417729963e-57
-1.18987792453e-55
-3.1380637704971e-54
-6.5157658640647e-53
-1.1155631524898e-51
-1.6240799772437e-50
-2.0552520011637e-49
-2.2985803428535e-48
-2.301467942273e-47
-2.0845243649272e-46
-1.7225195360862e-45
-1.3078770443646e-44
-9.1798694114908e-44
-5.987206673991e-43
-3.6448913934706e-42
-2.0793613739875e-41
-1.1155086637928e-40
-5.644936137778e-40
-2.7020457570326e-39
-1.2264736617827e-38
-5.2909861783325e-38
-2.1737997020937e-37
-8.5215901543935e-37
-3.1929005827962e-36
-1.1452464694357e-35
-3.9381578276278e-35
-1.300026101484e-34
-4.1249384035318e-34
-1.2594841020607e-33
-3.7046450473234e-33
-1.0507921045628e-32
-2.876818360261e-32
-7.608809948855e-32
-1.9457593720645e-31
-4.8146777895524e-31
-1.15363515946e-30
-2.6785002924131e-30
-6.0300142351541e-30
-1.3170846591655e-29
-2.7927231963783e-29
-5.7517076586129e-29
-1.1511788221197e-28
-2.2401411194851e-28
-4.2402532752638e-28
-7.8104750155096e-28
-1.4005745442026e-27
-2.4459118329665e-27
-4.161335235544e-27
-6.8995761256282e-27
-1.1151651849923e-26
-1.7575227037443e-26
-2.70155420238e-26
-4.0510824141865e-26
-5.9272543955126e-26
-8.4630577288242e-26
-1.1793500016234e-25
-1.6041043608386e-25
-2.1296576961084e-25
-2.7597121728314e-25
-3.4902506385974e-25
-4.3074199048e-25
-5.1860154193566e-25
-6.0889657646056e-25
-6.9681573432158e-25
-7.7668040477352e-25
-8.4233628605668e-25
-8.8767503741208e-25
-9.0723675074499e-25
-8.9682379015059e-25
-8.5404548234473e-25
-7.7871441217028e-25
-6.7302973851714e-25
-5.4150944378423e-25
-3.9066774233786e-25
-2.2847022986926e-25
-6.3631390675698e-26
9.5158847828439e-26
2.3998446276764e-25
3.6433999744903e-25
4.6358556408688e-25
5.3517998755519e-25
5.7868443105253e-25
5.955595282063e-25
5.8880311872018e-25
5.6249007913643e-25
5.2127945210088e-25
4.6994807416139e-25
4.1299665070166e-25
3.5435699862182e-25
2.9721131455499e-25
2.4391862802409e-25
7.8594137987946e-25
0
0
0
0
6.3723980096824e-74
2.9213223910778e-62
-1.4106656468965e-60
-2.9970961646952e-58
-1.79744706163e-56
-6.5553647765048e-55
-1.7321336459171e-53
-3.5953714128615e-52
-6.1463963348212e-51
-8.9285276178632e-50
-1.126912960582e-48
-1.2566291222196e-47
-1.2542443310757e-46
-1.132260792961e-45
-9.3242771679317e-45
-7.0548921375109e-44
-4.9340285192825e-43
-3.2063166101052e-42
-1.9447489084054e-41
-1.1053220357551e-40
-5.9074130654173e-40
-2.97808071072e-39
-1.4200776182401e-38
-6.4211014088515e-38
-2.7593741641868e-37
-1.1292951668221e-36
-4.4097532358418e-36
-1.6457988358635e-35
-5.8800393890574e-35
-2.0139869647732e-34
-6.6220173693629e-34
-2.0927768900383e-33
-6.3644071318197e-33
-1.8645083093262e-32
-5.2671989971375e-32
-1.4361951236344e-31
-3.7831090811146e-31
-9.6348650629041e-31
-2.3743330908953e-30
-5.6657145178073e-30
-1.3100382739733e-29
-2.9370511065105e-29
-6.3885622651148e-29
-1.348993011426e-28
-2.7667370199946e-28
-5.5144343972004e-28
-1.0686108359034e-27
-2.014290644647e-27
-3.6948383946764e-27
-6.5980408301314e-27
-1.1474803293067e-26
-1.9441949298136e-26
-3.2102694610286e-26
-5.1675213065835e-26
-8.1111633427224e-26
-1.2418059997708e-25
-1.8547780323507e-25
-2.7032305178134e-25
-3.8450246809992e-25
-5.3382319464343e-25
-7.2346769442943e-25
-9.5716562798021e-25
-1.236241048059e-24
-1.558635876855e-24
-1.9180491485493e-24
-2.3033555384411e-24
-2.6984668492851e-24
-3.0827697933829e-24
-3.4322111729014e-24
-3.7210127404411e-24
-3.9238948545092e-24
-4.0185881356009e-24
-3.9883354831547e-24
-3.8240508372657e-24
-3.5258174980689e-24
-3.1034796759488e-24
-2.5761974696328e-24
-1.9709792511586e-24
-1.3203518863286e-24
-6.5945256077621e-25
-2.2904621488696e-26
5.5813918163615e-25
1.0584412123251e-24
1.4603552034592e-24
1.754599422378e-24
1.9401230019665e-24
2.023180404744e-24
2.0158175363832e-24
1.9340209999246e-24
1.7957873791584e-24
1.6193378555242e-24
1.4216458814555e-24
1.2173755060602e-24
1.0182583061322e-24
8.3287806512351e-25
2.6396859215749e-24
0
0
0
0
4.8816261353326e-73
1.706921030533e-61
-5.1628485472122e-60
-1.4254045361773e-57
-8.7875029483858e-56
-3.231343838685e-54
-8.5594085129913e-53
-1.7766575302138e-51
-3.0332997481382e-50
-4.3972269015011e-49
-5.5358358017948e-48
-6.1553339443015e-47
-6.1246029360925e-46
-5.5108688455015e-45
-4.5228397251856e-44
-3.4100910702194e-43
-2.3764185675945e-42
-1.5386717551989e-41
-9.2981987802227e-41
-5.2650298593964e-40
-2.8033013014544e-39
-1.4078457841377e-38
-6.6875060160091e-38
-3.0121984878629e-37
-1.2894246270172e-36
-5.2564696708693e-36
-2.0445268387686e-35
-7.6004268497665e-35
-2.7046763549362e-34
-9.2269226922461e-34
-3.0216708699662e-33
-9.5110386884989e-33
-2.8807315270608e-32
-8.4050573193762e-32
-2.364718172636e-31
-6.421378645856e-31
-1.6844992720742e-30
-4.272349969725e-30
-1.0484658626372e-29
-2.4914446508766e-29
-5.7366338105074e-29
-1.2807200539738e-28
-2.7740144872606e-28
-5.8327306184977e-28
-1.1911897734028e-27
-2.3640665939589e-27
-4.5616234029144e-27
-8.5616870743678e-27
-1.5637493935045e-26
-2.7804773461671e-26
-4.8148374353923e-26
-8.1228596610054e-26
-1.3355057272131e-25
-2.1405525939931e-25
-3.3455888171671e-25
-5.1003263166981e-25
-7.5858277994869e-25
-1.1009727410619e-24
-1.5595343733651e-24
-2.1563565924332e-24
-2.9107219991735e-24
-3.8358859208046e-24
-4.9354458464161e-24
-6.1997100361014e-24
-7.6026097476865e-24
-9.099773150855e-24
-1.062835705513e-23
-1.2109094188357e-23
-1.3450759013716e-23
-1.4556909796638e-23
-1.5334379555705e-23
-1.5702631948678e-23
-1.5602842970987e-23
-1.5005477141593e-23
-1.391523262826e-23
-1.2372531559245e-23
-1.0451188109233e-23
-8.2524233901653e-24
-5.8959197806892e-24
-3.5090257860864e-24
-1.2154634034991e-24
8.7508454981152e-25
2.6753160199768e-24
4.1257447047498e-24
5.196847089356e-24
5.8880098795395e-24
6.2237734935089e-24
6.2481537694826e-24
6.0179596686334e-24
5.596009737883e-24
5.0450104871369e-24
4.4226385303268e-24
3.7781143012523e-24
3.1503133849391e-24
2.5672657413494e-24
7.9972811032668e-24
0
0
0
0
3.2592264392915e-72
8.9491017464603e-61
-1.3886408335306e-59
-6.0808715268253e-57
-3.8755094987688e-55
-1.4390910505446e-53
-3.8239700863417e-52
-7.9401588822626e-51
-1.3541666588198e-49
-1.9593132724728e-48
-2.4606307141659e-47
-2.728338643423e-46
-2.7064425390736e-45
-2.4273658645005e-44
-1.9854562960375e-43
-1.4917716112522e-42
-1.035880008165e-41
-6.6827099350164e-41
-4.0234697203845e-40
-2.2697451924775e-39
-1.2039333303013e-38
-6.0232160391742e-38
-2.8501274887173e-37
-1.2787858714649e-36
-5.4527148681035e-36
-2.2141285331931e-35
-8.5779439260497e-35
-3.1761460324088e-34
-1.1257465398403e-33
-3.8250407830417e-33
-1.2475888070839e-32
-3.9110088578781e-32
-1.179754688769e-31
-3.4280670165037e-31
-9.6050447757718e-31
-2.5974750852412e-30
-6.7856085064728e-30
-1.713844559951e-29
-4.1882957322998e-29
-9.9107049009588e-29
-2.2723359646917e-28
-5.0515382049922e-28
-1.0894922682936e-27
-2.2810007216283e-27
-4.6383632435827e-27
-9.165712154161e-27
-1.7609268115882e-26
-3.2907098081059e-26
-5.9841042479531e-26
-1.0593684887984e-25
-1.826415587511e-25
-3.0676981973068e-25
-5.0214781517854e-25
-8.0129338452795e-25
-1.2468587971812e-24
-1.8924430710739e-24
-2.8022789290211e-24
-4.0492500594071e-24
-5.7107362614309e-24
-7.861951789107e-24
-1.0566754061652e-23
-1.3866345950417e-23
-1.776682816507e-23
-2.2227093453842e-23
-2.7148976401355e-23
-3.237175691362e-23
-3.7672956341606e-23
-4.2776807208935e-23
-4.7370841343794e-23
-5.1129835348004e-23
-5.3745064583917e-23
-5.4955684288038e-23
-5.4578318224043e-23
-5.253077872807e-23
-4.8846354685757e-23
-4.3676245429428e-23
-3.7279319803164e-23
-3.0000172833765e-23
-2.2238124237185e-23
-1.4411059594899e-23
-6.9186431481902e-24
-1.0934035477937e-25
5.7450746252128e-24
1.0465118639157e-23
1.3968422262749e-23
1.6264398440884e-23
1.7440627728042e-23
1.7643650112788e-23
1.7057171775081e-23
1.5880537087237e-23
1.4309784012923e-23
1.2522843076298e-23
1.0669615204391e-23
8.8669106990496e-24
7.1976480488302e-24
2.202924961838e-23
0
0
0
0
1.9266779881562e-71
4.2522705135737e-60
-1.3944323812913e-59
-2.3406592893019e-56
-1.5536632181099e-54
-5.8365973945446e-53
-1.5570024774497e-51
-3.2354780150861e-50
-5.51342621525e-49
-7.9632978319525e-48
-9.9775288608813e-47
-1.1032989876894e-45
-1.0911719187641e-44
-9.7553321282971e-44
-7.9526886468692e-43
-5.9545913018469e-42
-4.1201658181963e-41
-2.6483829350842e-40
-1.5886375513086e-39
-8.9284155033709e-39
-4.7179518299847e-38
-2.3513452948677e-37
-1.1083432776683e-36
-4.9535504051609e-36
-2.103915446291e-35
-8.5095003839717e-35
-3.2836737573345e-34
-1.2109976994763e-33
-4.2750437179418e-33
-1.4467202057782e-32
-4.6995932595267e-32
-1.4672697600776e-31
-4.4079581463379e-31
-1.2755925247798e-30
-3.5593553356179e-30
-9.585725884139e-30
-2.4937699640363e-29
-6.272276604076e-29
-1.5264034941291e-28
-3.5967203519159e-28
-8.2117637757364e-28
-1.8177776337123e-27
-3.9037829249712e-27
-8.1380858275818e-27
-1.6477360522962e-26
-3.2419450474639e-26