/*--------------------------------*- C++ -*----------------------------------*\
  =========                 |
  \\      /  F ield         | OpenFOAM: The Open Source CFD Toolbox
   \\    /   O peration     | Website:  https://openfoam.org
    \\  /    A nd           | Version:  7
     \\/     M anipulation  |
\*---------------------------------------------------------------------------*/
FoamFile
{
    version     2.0;
    format      ascii;
    class       volScalarField;
    location    "0.095";
    object      T;
}
// * * * * * * * * * * * * * * * * * * * * * * * * * * * * * * * * * * * * * //

dimensions      [0 0 0 1 0 0 0];

internalField   nonuniform List<scalar> 
12225
(
1.00689
1.0041
1.00171
1.00089
1.00043
1.00012
0.999964
0.999897
0.999865
0.999844
0.99983
0.999808
0.999765
0.999652
0.999363
0.998682
0.996787
0.992789
0.995136
0.994812
0.996745
0.998334
0.999127
0.999464
0.999644
0.999763
0.999838
0.99988
0.999899
0.999901
0.99987
0.999769
0.999492
0.998839
0.997155
0.993373
0.999619
1.00005
1.00023
1.00028
1.0002
1.00008
0.999991
0.999952
0.999933
0.999917
0.999901
0.99988
0.999835
0.99973
0.999467
0.998859
0.997393
0.994338
1.00032
1.00017
0.999777
0.999749
0.999819
0.999835
0.999837
0.99985
0.999864
0.999871
0.999872
0.999863
0.999829
0.999738
0.999505
0.998971
0.997759
0.995359
1.00014
0.999947
0.999658
0.999701
0.999818
0.999857
0.999862
0.999871
0.999881
0.999887
0.999886
0.999876
0.999844
0.99976
0.999555
0.999099
0.998123
0.996289
1.00002
0.999951
0.999769
0.999773
0.999847
0.999872
0.999872
0.999877
0.999884
0.999889
0.999888
0.999879
0.999849
0.999776
0.999602
0.999226
0.998461
0.99709
0.999995
1
0.999864
0.999822
0.999858
0.999877
0.999879
0.999882
0.999888
0.999893
0.999892
0.999884
0.999858
0.999796
0.999652
0.999351
0.998766
0.997757
0.999995
1.00002
0.999917
0.999858
0.999872
0.999888
0.999889
0.999891
0.999896
0.999899
0.999899
0.999891
0.999869
0.999818
0.999702
0.999467
0.999029
0.998298
0.999995
1.00002
0.999951
0.999894
0.999893
0.999902
0.999902
0.999903
0.999905
0.999907
0.999906
0.999899
0.999881
0.99984
0.99975
0.999572
0.99925
0.998728
0.999995
1.00002
0.999976
0.999926
0.999916
0.999918
0.999916
0.999915
0.999916
0.999917
0.999915
0.999908
0.999893
0.999861
0.999792
0.999661
0.99943
0.999063
0.999996
1.00002
0.999992
0.999953
0.999938
0.999935
0.999931
0.999928
0.999927
0.999927
0.999924
0.999919
0.999907
0.999882
0.99983
0.999736
0.999573
0.99932
0.999997
1.00001
1
0.999971
0.999954
0.999949
0.999944
0.99994
0.999938
0.999936
0.999933
0.999929
0.999919
0.9999
0.999861
0.999792
0.999676
0.999497
0.999997
1.00001
1.00001
0.999984
0.999968
0.999962
0.999957
0.999952
0.999948
0.999945
0.999944
0.99994
0.999931
0.999916
0.999888
0.999838
0.999757
0.999633
0.999997
1.00001
1.00001
0.999993
0.999981
0.999974
0.999968
0.999964
0.99996
0.999957
0.999955
0.999951
0.999944
0.999933
0.999914
0.999881
0.999827
0.999748
0.999998
1.00001
1.00001
1
0.999991
0.999985
0.999981
0.999977
0.999973
0.999968
0.999965
0.999963
0.999958
0.999951
0.999937
0.999916
0.999884
0.999838
0.999998
1.00001
1.00001
1
0.999998
0.999994
0.999991
0.999988
0.999983
0.99998
0.999976
0.999974
0.999972
0.999966
0.999957
0.999944
0.999926
0.999901
0.999998
1.00001
1.00001
1.00001
1
0.999999
0.999998
0.999996
0.999992
0.999989
0.999985
0.999983
0.999981
0.999979
0.999973
0.999966
0.999956
0.999944
0.999999
1.00001
1.00001
1.00001
1
1
1
0.999998
0.999995
0.999993
0.999993
0.999992
0.999988
0.999985
0.999982
0.99998
0.999976
0.99997
1
1.00001
1.00001
1.00001
1
1
1
0.999999
0.999998
0.999996
0.999994
0.999992
0.99999
0.999988
0.999987
0.999985
0.999982
0.999979
0.999999
1.00001
1.00001
1.00001
1.00001
1
0.999998
0.999996
0.999993
0.999991
0.999989
0.999987
0.999985
0.999982
0.999981
0.999979
0.999977
0.999975
0.999997
1.00001
1.00001
1.00001
1
0.999998
0.999993
0.999988
0.999985
0.999982
0.999979
0.999976
0.999973
0.999972
0.999971
0.999969
0.999968
0.999966
0.999997
1.00001
1.00002
1.00001
0.999995
0.999988
0.999982
0.999975
0.999969
0.999965
0.999964
0.999963
0.99996
0.999959
0.999958
0.999958
0.999957
0.999955
0.999996
1.00003
1.00003
0.999996
0.999972
0.999966
0.999961
0.999956
0.999952
0.999949
0.999948
0.999947
0.999946
0.999945
0.999945
0.999944
0.999944
0.999944
0.999989
1.00005
1.00004
0.999983
0.999948
0.999938
0.999932
0.999929
0.999929
0.999931
0.999932
0.999933
0.999932
0.999933
0.999934
0.999935
0.999935
0.999936
0.99999
1.00004
0.999992
0.999937
0.999931
0.999929
0.999917
0.999909
0.999908
0.99991
0.999912
0.999915
0.999917
0.999918
0.999919
0.999921
0.999924
0.999925
1.00013
1.00009
0.999825
0.999756
0.999837
0.999896
0.999909
0.999912
0.999916
0.999918
0.99992
0.999921
0.999922
0.999922
0.999923
0.999924
0.999925
0.999926
1.0005
1.00053
0.999952
0.999665
0.999667
0.999718
0.999754
0.999789
0.99982
0.999844
0.999861
0.999875
0.999885
0.999893
0.9999
0.999905
0.999909
0.999915
1.00004
1.0008
1.00096
1.0008
1.00056
1.00034
1.00018
1.00009
1.00003
0.999996
0.99997
0.999954
0.999943
0.999935
0.99993
0.999925
0.999921
0.999921
0.994604
0.993791
0.995838
0.997661
0.998662
0.999144
0.999416
0.999594
0.99971
0.999782
0.999829
0.999863
0.999887
0.999905
0.999918
0.999928
0.999933
0.99993
1.00635
1.00419
1.00178
1.00096
1.00054
1.00023
1.00005
0.999977
0.999939
0.999915
0.9999
0.999892
0.999888
0.999886
0.999885
0.999886
0.999888
0.999899
0.786327
0.786336
0.786303
0.786259
0.786219
0.78618
0.786137
0.786094
0.786053
0.786016
0.785983
0.785954
0.785928
0.785906
0.785888
0.785876
0.78587
0.785871
0.78588
0.785898
0.785927
0.785967
0.786021
0.786089
0.786172
0.786271
0.786386
0.786514
0.786655
0.78681
0.786992
0.78723
0.787603
0.788247
0.788899
0.78936
0.789831
0.790262
0.790673
0.791073
0.791432
0.791844
0.792348
0.792818
0.793319
0.793902
0.794492
0.795104
0.795735
0.796383
0.797046
0.797723
0.798412
0.799111
0.79982
0.800538
0.801263
0.801995
0.802732
0.803474
0.80422
0.804969
0.80572
0.806472
0.807225
0.807978
0.80873
0.809481
0.810229
0.810975
0.811718
0.812457
0.813192
0.813923
0.814649
0.815369
0.816084
0.816793
0.817496
0.818193
0.818883
0.819566
0.820242
0.820911
0.821572
0.822227
0.822873
0.823513
0.824145
0.82477
0.825387
0.825996
0.826598
0.827192
0.827778
0.828354
0.82892
0.829474
0.830022
0.830566
0.831101
0.831629
0.832148
0.832659
0.833161
0.833654
0.834139
0.834616
0.835084
0.835543
0.835994
0.836435
0.836869
0.837293
0.837709
0.838116
0.838515
0.838904
0.839284
0.839655
0.840017
0.84037
0.840712
0.841043
0.841364
0.841676
0.841977
0.842267
0.842548
0.842819
0.84308
0.843331
0.843571
0.843802
0.844023
0.844233
0.844434
0.844624
0.844804
0.844975
0.845135
0.845285
0.845424
0.845551
0.845666
0.84577
0.845861
0.84594
0.846007
0.846061
0.846103
0.846131
0.846147
0.846149
0.846139
0.846115
0.846078
0.846027
0.845963
0.845884
0.845791
0.845681
0.845546
0.845373
0.845165
0.844938
0.844699
0.844448
0.844186
0.843913
0.843627
0.84333
0.84302
0.842698
0.842364
0.842013
0.84167
0.841206
0.841022
0.83946
0.786874
0.78687
0.786866
0.786852
0.786837
0.786823
0.786806
0.786785
0.786758
0.786728
0.786695
0.786662
0.786631
0.786604
0.786582
0.786568
0.786561
0.786564
0.786577
0.786602
0.786641
0.786696
0.786769
0.786864
0.786984
0.787134
0.787318
0.787542
0.787809
0.788119
0.788465
0.788826
0.78918
0.789332
0.789376
0.789597
0.789908
0.790299
0.790748
0.791228
0.791757
0.792293
0.792783
0.793326
0.793923
0.794504
0.795094
0.795699
0.796322
0.79696
0.797614
0.798282
0.798963
0.799654
0.800356
0.801066
0.801784
0.802509
0.80324
0.803975
0.804714
0.805456
0.806201
0.806947
0.807693
0.808439
0.809185
0.809929
0.810671
0.81141
0.812146
0.812879
0.813608
0.814332
0.815051
0.815765
0.816474
0.817176
0.817872
0.818562
0.819245
0.819922
0.820591
0.821253
0.821908
0.822555
0.823194
0.823826
0.824451
0.825067
0.825676
0.826277
0.82687
0.827454
0.828031
0.828601
0.829164
0.829721
0.830269
0.830806
0.831334
0.831853
0.832363
0.832864
0.833357
0.833841
0.834316
0.834783
0.83524
0.835689
0.83613
0.836561
0.836984
0.837397
0.837802
0.838198
0.838585
0.838963
0.839331
0.839691
0.840041
0.840381
0.84071
0.841029
0.841338
0.841636
0.841924
0.842202
0.842469
0.842727
0.842974
0.843211
0.843438
0.843654
0.84386
0.844056
0.844242
0.844417
0.844583
0.844738
0.844882
0.845016
0.845138
0.845249
0.845348
0.845434
0.845508
0.84557
0.845619
0.845655
0.845678
0.845687
0.845684
0.845667
0.845636
0.845592
0.845533
0.845462
0.845375
0.845275
0.845158
0.845026
0.844879
0.844721
0.844551
0.844363
0.844161
0.843944
0.843714
0.84347
0.843214
0.842944
0.842661
0.842365
0.842058
0.841737
0.84142
0.841014
0.84079
0.839706
0.788081
0.788028
0.788005
0.787987
0.787969
0.787945
0.787916
0.787882
0.787845
0.787805
0.787764
0.787723
0.787685
0.78765
0.78762
0.787598
0.787583
0.787578
0.787583
0.787602
0.787634
0.787683
0.78775
0.787837
0.787945
0.788077
0.788232
0.788408
0.788605
0.788817
0.789045
0.789291
0.78956
0.789834
0.790112
0.790423
0.79076
0.79113
0.791537
0.791982
0.792467
0.792992
0.793541
0.794108
0.794684
0.795265
0.795859
0.796466
0.797088
0.797723
0.798373
0.799035
0.799709
0.800394
0.801089
0.801793
0.802505
0.803223
0.803947
0.804676
0.805409
0.806146
0.806885
0.807625
0.808366
0.809108
0.809848
0.810588
0.811326
0.812061
0.812794
0.813522
0.814248
0.814969
0.815685
0.816397
0.817102
0.817803
0.818497
0.819185
0.819866
0.820541
0.821209
0.82187
0.822523
0.823169
0.823808
0.82444
0.825064
0.82568
0.826289
0.82689
0.827483
0.828068
0.828645
0.829213
0.829774
0.830326
0.830871
0.831407
0.831934
0.832453
0.832963
0.833465
0.833958
0.834442
0.834918
0.835385
0.835843
0.836292
0.836732
0.837164
0.837587
0.838001
0.838405
0.838801
0.839188
0.839566
0.839934
0.840293
0.840642
0.840982
0.841311
0.841629
0.841937
0.842234
0.842521
0.842798
0.843064
0.84332
0.843566
0.843801
0.844026
0.844241
0.844445
0.844638
0.844821
0.844994
0.845156
0.845308
0.845449
0.845579
0.845698
0.845804
0.845898
0.84598
0.846049
0.846105
0.846149
0.846179
0.846196
0.846199
0.846189
0.846165
0.846127
0.846076
0.84601
0.84593
0.845836
0.845728
0.845605
0.845467
0.845317
0.845159
0.844992
0.844811
0.844614
0.844404
0.844179
0.843941
0.843688
0.843422
0.843143
0.842851
0.842546
0.842227
0.841906
0.84151
0.841252
0.840455
0.789879
0.78978
0.789729
0.789699
0.789667
0.789629
0.789584
0.789536
0.789485
0.789432
0.789379
0.789327
0.789277
0.789232
0.789191
0.789157
0.789132
0.789116
0.789112
0.78912
0.789143
0.789181
0.789236
0.78931
0.789404
0.789518
0.789653
0.789808
0.789983
0.790178
0.790397
0.790641
0.790908
0.791191
0.79149
0.791816
0.792167
0.792543
0.792944
0.79337
0.793824
0.794304
0.794806
0.795333
0.795879
0.796442
0.797021
0.797616
0.798226
0.79885
0.799487
0.800138
0.8008
0.801473
0.802156
0.802848
0.803547
0.804254
0.804968
0.805686
0.806408
0.807135
0.807864
0.808595
0.809327
0.81006
0.810792
0.811524
0.812255
0.812983
0.813709
0.814432
0.815152
0.815868
0.81658
0.817287
0.817989
0.818686
0.819377
0.820063
0.820742
0.821415
0.822082
0.822742
0.823395
0.824041
0.82468
0.825312
0.825936
0.826554
0.827164
0.827767
0.828362
0.828949
0.829528
0.8301
0.830664
0.83122
0.831767
0.832306
0.832837
0.83336
0.833874
0.83438
0.834877
0.835365
0.835845
0.836316
0.836778
0.837232
0.837677
0.838113
0.83854
0.838959
0.839369
0.839769
0.840161
0.840543
0.840916
0.841279
0.841633
0.841977
0.84231
0.842632
0.842944
0.843246
0.843537
0.843817
0.844088
0.844347
0.844596
0.844835
0.845063
0.84528
0.845487
0.845683
0.845868
0.846043
0.846207
0.84636
0.846502
0.846633
0.846752
0.846859
0.846953
0.847034
0.847103
0.847158
0.847201
0.847229
0.847245
0.847246
0.847234
0.847208
0.847168
0.847114
0.847046
0.846963
0.846866
0.846755
0.84663
0.84649
0.846338
0.846175
0.846001
0.845814
0.845613
0.845397
0.845168
0.844924
0.844667
0.844396
0.844111
0.843812
0.843501
0.843173
0.842838
0.84244
0.842156
0.841496
0.792231
0.792088
0.792013
0.791972
0.791929
0.791877
0.791818
0.791755
0.791688
0.79162
0.791551
0.791483
0.791417
0.791355
0.791299
0.791249
0.791208
0.791176
0.791155
0.791147
0.791153
0.791174
0.791212
0.791267
0.791342
0.791436
0.79155
0.791686
0.791844
0.792024
0.792229
0.792457
0.792708
0.792979
0.79327
0.793586
0.793926
0.794291
0.79468
0.795092
0.795529
0.795988
0.796469
0.796972
0.797495
0.798037
0.798597
0.799173
0.799765
0.800372
0.800993
0.801627
0.802273
0.80293
0.803597
0.804274
0.804959
0.805651
0.806349
0.807054
0.807763
0.808476
0.809192
0.809911
0.810632
0.811354
0.812076
0.812798
0.813519
0.814239
0.814956
0.815672
0.816385
0.817094
0.8178
0.818501
0.819198
0.819891
0.820578
0.82126
0.821937
0.822607
0.823272
0.82393
0.824582
0.825228
0.825867
0.826499
0.827124
0.827742
0.828354
0.828958
0.829555
0.830144
0.830726
0.8313
0.831867
0.832426
0.832977
0.83352
0.834055
0.834582
0.8351
0.83561
0.836112
0.836605
0.83709
0.837566
0.838034
0.838493
0.838944
0.839385
0.839818
0.840242
0.840657
0.841063
0.841461
0.841848
0.842227
0.842596
0.842955
0.843304
0.843642
0.84397
0.844287
0.844593
0.844889
0.845174
0.845449
0.845713
0.845966
0.846208
0.84644
0.84666
0.84687
0.847069
0.847257
0.847434
0.8476
0.847755
0.847899
0.848031
0.848151
0.848258
0.848352
0.848433
0.848501
0.848556
0.848597
0.848624
0.848638
0.848638
0.848624
0.848595
0.848553
0.848496
0.848425
0.848339
0.848238
0.848123
0.847994
0.847851
0.847695
0.847526
0.847345
0.847151
0.846943
0.846721
0.846485
0.846235
0.845971
0.845693
0.845401
0.845095
0.844774
0.844436
0.844089
0.843686
0.843393
0.842782
0.795138
0.794964
0.794872
0.79482
0.794766
0.794701
0.794627
0.794547
0.794463
0.794377
0.794289
0.794202
0.794117
0.794036
0.79396
0.79389
0.793829
0.793777
0.793736
0.793707
0.793692
0.793692
0.793709
0.793743
0.793796
0.793868
0.793962
0.794077
0.794214
0.794375
0.79456
0.794768
0.794998
0.795251
0.795525
0.795823
0.796145
0.796491
0.796861
0.797254
0.79767
0.798109
0.79857
0.799051
0.799553
0.800073
0.80061
0.801165
0.801735
0.802321
0.802921
0.803534
0.80416
0.804797
0.805444
0.806101
0.806767
0.80744
0.808121
0.808808
0.8095
0.810196
0.810897
0.811601
0.812307
0.813014
0.813723
0.814432
0.815141
0.815849
0.816556
0.817261
0.817964
0.818664
0.819362
0.820056
0.820746
0.821432
0.822113
0.82279
0.823462
0.824129
0.82479
0.825445
0.826095
0.826739
0.827376
0.828007
0.828632
0.82925
0.829862
0.830467
0.831065
0.831656
0.83224
0.832816
0.833386
0.833948
0.834502
0.835048
0.835587
0.836118
0.83664
0.837155
0.837661
0.838159
0.838649
0.83913
0.839603
0.840068
0.840524
0.840971
0.841409
0.841839
0.84226
0.842672
0.843075
0.843468
0.843852
0.844227
0.844591
0.844946
0.845289
0.845622
0.845944
0.846256
0.846556
0.846846
0.847125
0.847393
0.847651
0.847897
0.848132
0.848356
0.848568
0.84877
0.84896
0.84914
0.849307
0.849464
0.849608
0.849741
0.849861
0.849968
0.850061
0.850142
0.850209
0.850262
0.850301
0.850327
0.850338
0.850335
0.850318
0.850286
0.85024
0.850179
0.850103
0.850013
0.849908
0.849788
0.849654
0.849506
0.849344
0.849169
0.848981
0.84878
0.848565
0.848336
0.848093
0.847835
0.847564
0.847278
0.846978
0.846664
0.846334
0.845986
0.845628
0.845219
0.844919
0.844314
0.798617
0.798428
0.798323
0.798261
0.798194
0.798114
0.798024
0.797927
0.797824
0.797718
0.79761
0.797502
0.797395
0.797291
0.797192
0.7971
0.797015
0.79694
0.796875
0.796823
0.796784
0.796761
0.796754
0.796764
0.796793
0.796842
0.796912
0.797004
0.797118
0.797256
0.797416
0.7976
0.797807
0.798036
0.798289
0.798564
0.798863
0.799186
0.799533
0.799902
0.800294
0.800708
0.801144
0.8016
0.802076
0.80257
0.803082
0.803611
0.804156
0.804716
0.805291
0.805879
0.80648
0.807093
0.807716
0.80835
0.808993
0.809644
0.810302
0.810968
0.811639
0.812315
0.812996
0.813681
0.814369
0.815059
0.815751
0.816444
0.817137
0.81783
0.818523
0.819215
0.819906
0.820595
0.821281
0.821965
0.822646
0.823323
0.823996
0.824665
0.825331
0.825991
0.826647
0.827298
0.827943
0.828583
0.829217
0.829846
0.830469
0.831086
0.831697
0.832301
0.832899
0.833491
0.834075
0.834653
0.835224
0.835788
0.836344
0.836893
0.837435
0.837969
0.838495
0.839013
0.839524
0.840026
0.84052
0.841006
0.841484
0.841954
0.842415
0.842867
0.843311
0.843746
0.844173
0.84459
0.844998
0.845397
0.845787
0.846167
0.846536
0.846896
0.847244
0.847583
0.84791
0.848226
0.848531
0.848826
0.849109
0.849381
0.849642
0.849892
0.85013
0.850357
0.850573
0.850777
0.850969
0.85115
0.851319
0.851477
0.851622
0.851754
0.851874
0.85198
0.852073
0.852152
0.852217
0.852269
0.852305
0.852328
0.852336
0.85233
0.852309
0.852273
0.852222
0.852156
0.852076
0.85198
0.85187
0.851744
0.851604
0.85145
0.851281
0.851099
0.850904
0.850695
0.850471
0.850234
0.849983
0.849717
0.849438
0.849144
0.848835
0.848511
0.848171
0.847813
0.847444
0.847028
0.846719
0.846101
0.802698
0.802502
0.802388
0.802314
0.802234
0.802138
0.802031
0.801916
0.801793
0.801666
0.801535
0.801404
0.801273
0.801145
0.801021
0.800903
0.800792
0.800691
0.8006
0.800522
0.800457
0.800407
0.800374
0.800358
0.800361
0.800384
0.800427
0.800492
0.80058
0.80069
0.800824
0.80098
0.80116
0.801362
0.801588
0.801836
0.802108
0.802404
0.802722
0.803064
0.803427
0.803812
0.804219
0.804645
0.805091
0.805556
0.806038
0.806537
0.807053
0.807584
0.808129
0.808688
0.80926
0.809844
0.81044
0.811046
0.811661
0.812286
0.812918
0.813558
0.814204
0.814856
0.815514
0.816175
0.816841
0.81751
0.818181
0.818854
0.819529
0.820204
0.820879
0.821555
0.82223
0.822903
0.823576
0.824246
0.824914
0.825579
0.826242
0.826901
0.827556
0.828208
0.828856
0.829499
0.830138
0.830772
0.831401
0.832025
0.832644
0.833257
0.833865
0.834467
0.835063
0.835653
0.836237
0.836814
0.837385
0.837949
0.838506
0.839057
0.8396
0.840136
0.840665
0.841185
0.841699
0.842204
0.842702
0.843192
0.843673
0.844147
0.844612
0.845069
0.845518
0.845957
0.846388
0.84681
0.847224
0.847628
0.848022
0.848407
0.848781
0.849145
0.849498
0.849841
0.850173
0.850493
0.850803
0.851101
0.851389
0.851664
0.851929
0.852181
0.852423
0.852652
0.85287
0.853076
0.85327
0.853452
0.853623
0.85378
0.853926
0.854058
0.854177
0.854282
0.854373
0.854451
0.854513
0.854562
0.854596
0.854615
0.85462
0.854609
0.854583
0.854543
0.854487
0.854416
0.854329
0.854228
0.854111
0.853979
0.853832
0.85367
0.853494
0.853304
0.8531
0.852882
0.85265
0.852404
0.852144
0.851869
0.85158
0.851277
0.850958
0.850624
0.850274
0.849905
0.849526
0.849099
0.848781
0.848141
0.807415
0.807215
0.807094
0.807007
0.806912
0.8068
0.806675
0.806539
0.806396
0.806246
0.806091
0.805935
0.805779
0.805624
0.805473
0.805327
0.805189
0.805059
0.80494
0.804833
0.804739
0.804661
0.804598
0.804553
0.804527
0.804521
0.804535
0.80457
0.804628
0.804708
0.804811
0.804936
0.805085
0.805256
0.805451
0.805669
0.805909
0.806173
0.806459
0.806768
0.807099
0.807451
0.807824
0.808217
0.808629
0.809059
0.809508
0.809973
0.810454
0.810951
0.811463
0.811988
0.812527
0.813078
0.813641
0.814215
0.814799
0.815392
0.815994
0.816604
0.817221
0.817845
0.818474
0.819109
0.819748
0.820391
0.821037
0.821686
0.822338
0.822991
0.823645
0.8243
0.824955
0.82561
0.826264
0.826917
0.827569
0.828219
0.828866
0.829512
0.830155
0.830794
0.83143
0.832063
0.832692
0.833317
0.833938
0.834554
0.835166
0.835773
0.836375
0.836972
0.837563
0.838149
0.83873
0.839304
0.839873
0.840435
0.840991
0.841541
0.842083
0.842619
0.843148
0.84367
0.844184
0.844691
0.845191
0.845682
0.846166
0.846642
0.847111
0.847571
0.848022
0.848465
0.848899
0.849325
0.849742
0.850149
0.850548
0.850936
0.851314
0.851682
0.852039
0.852385
0.85272
0.853044
0.853357
0.853659
0.853949
0.854228
0.854495
0.85475
0.854993
0.855224
0.855443
0.855651
0.855846
0.856029
0.856199
0.856357
0.856502
0.856633
0.856751
0.856854
0.856943
0.857018
0.857078
0.857123
0.857154
0.857169
0.857169
0.857154
0.857123
0.857077
0.857015
0.856938
0.856845
0.856736
0.856612
0.856473
0.856319
0.856149
0.855965
0.855766
0.855553
0.855325
0.855084
0.854828
0.854558
0.854273
0.853974
0.85366
0.853331
0.852987
0.852626
0.852246
0.851855
0.851418
0.851088
0.850426
0.812802
0.812601
0.812471
0.81237
0.81226
0.81213
0.811986
0.811829
0.811662
0.811488
0.811309
0.811126
0.810942
0.810759
0.810579
0.810403
0.810235
0.810074
0.809924
0.809786
0.809661
0.809551
0.809457
0.80938
0.809322
0.809283
0.809265
0.809267
0.809292
0.809338
0.809407
0.809499
0.809613
0.80975
0.809909
0.810092
0.810297
0.810525
0.810775
0.811047
0.81134
0.811655
0.81199
0.812345
0.812718
0.81311
0.81352
0.813947
0.81439
0.814849
0.815322
0.815809
0.81631
0.816824
0.81735
0.817887
0.818434
0.818992
0.819558
0.820133
0.820716
0.821306
0.821903
0.822506
0.823114
0.823727
0.824343
0.824964
0.825587
0.826213
0.826841
0.827471
0.828102
0.828733
0.829365
0.829997
0.830628
0.831258
0.831887
0.832514
0.83314
0.833763
0.834384
0.835003
0.835618
0.83623
0.836838
0.837443
0.838044
0.838641
0.839234
0.839823
0.840406
0.840985
0.841559
0.842128
0.842691
0.843248
0.8438
0.844346
0.844885
0.845419
0.845945
0.846465
0.846978
0.847484
0.847983
0.848474
0.848958
0.849435
0.849903
0.850364
0.850817
0.851261
0.851697
0.852124
0.852543
0.852952
0.853352
0.853742
0.854123
0.854492
0.854852
0.8552
0.855537
0.855864
0.856179
0.856482
0.856774
0.857054
0.857323
0.857579
0.857823
0.858056
0.858275
0.858483
0.858678
0.858861
0.859031
0.859187
0.859331
0.85946
0.859575
0.859676
0.859763
0.859834
0.859891
0.859932
0.859958
0.859969
0.859964
0.859943
0.859906
0.859854
0.859786
0.859702
0.859602
0.859486
0.859354
0.859207
0.859044
0.858866
0.858672
0.858465
0.858242
0.858004
0.857753
0.857486
0.857206
0.85691
0.8566
0.856276
0.855936
0.85558
0.855208
0.854817
0.854415
0.853966
0.853625
0.852941
0.818894
0.818694
0.818555
0.81844
0.818311
0.818163
0.817997
0.817818
0.817627
0.817427
0.817221
0.81701
0.816796
0.816583
0.816371
0.816164
0.815963
0.81577
0.815586
0.815414
0.815256
0.815111
0.814983
0.814871
0.814778
0.814703
0.814649
0.814616
0.814603
0.814613
0.814644
0.814698
0.814774
0.814872
0.814993
0.815136
0.815302
0.81549
0.815699
0.81593
0.816182
0.816455
0.816748
0.81706
0.817391
0.81774
0.818107
0.81849
0.81889
0.819306
0.819736
0.820181
0.820639
0.82111
0.821593
0.822088
0.822595
0.823111
0.823637
0.824173
0.824716
0.825268
0.825827
0.826392
0.826964
0.827541
0.828123
0.82871
0.8293
0.829894
0.830491
0.83109
0.831691
0.832294
0.832898
0.833503
0.834109
0.834714
0.835319
0.835924
0.836528
0.83713
0.837731
0.83833
0.838926
0.839521
0.840113
0.840702
0.841288
0.841871
0.84245
0.843026
0.843598
0.844165
0.844729
0.845287
0.845841
0.84639
0.846934
0.847473
0.848005
0.848532
0.849053
0.849568
0.850076
0.850578
0.851073
0.851561
0.852042
0.852516
0.852983
0.853441
0.853892
0.854335
0.85477
0.855197
0.855615
0.856024
0.856423
0.856814
0.857194
0.857564
0.857923
0.858271
0.858609
0.858936
0.859251
0.859555
0.859847
0.860127
0.860396
0.860652
0.860896
0.861127
0.861346
0.861553
0.861747
0.861928
0.862096
0.862251
0.862391
0.862518
0.86263
0.862728
0.862811
0.862878
0.86293
0.862967
0.862987
0.862993
0.862982
0.862955
0.862912
0.862853
0.862777
0.862686
0.862578
0.862455
0.862315
0.862158
0.861987
0.861799
0.861597
0.861379
0.861146
0.860898
0.860636
0.860358
0.860067
0.85976
0.859439
0.859103
0.858752
0.858385
0.858002
0.857599
0.857186
0.856726
0.856372
0.855668
0.825734
0.825534
0.825386
0.825254
0.825107
0.824937
0.824749
0.824545
0.824328
0.8241
0.823864
0.823622
0.823377
0.823131
0.822885
0.822644
0.822408
0.822179
0.821959
0.821751
0.821555
0.821373
0.821207
0.821058
0.820926
0.820813
0.820719
0.820646
0.820594
0.820562
0.820553
0.820565
0.820599
0.820655
0.820734
0.820834
0.820955
0.821099
0.821263
0.821449
0.821655
0.821881
0.822127
0.822392
0.822676
0.822978
0.823297
0.823632
0.823984
0.824351
0.824734
0.82513
0.825541
0.825964
0.8264
0.826848
0.827308
0.827778
0.828258
0.828748
0.829247
0.829754
0.830269
0.830792
0.831322
0.831857
0.832399
0.832946
0.833497
0.834053
0.834613
0.835176
0.835742
0.83631
0.836881
0.837454
0.838028
0.838603
0.839178
0.839754
0.840331
0.840906
0.841481
0.842056
0.842629
0.8432
0.84377
0.844338
0.844904
0.845468
0.846029
0.846587
0.847142
0.847693
0.848241
0.848786
0.849326
0.849862
0.850393
0.85092
0.851442
0.851958
0.852469
0.852975
0.853475
0.853968
0.854456
0.854937
0.855412
0.855879
0.85634
0.856794
0.85724
0.857678
0.858109
0.858532
0.858946
0.859352
0.859748
0.860136
0.860513
0.86088
0.861237
0.861584
0.861919
0.862244
0.862557
0.862859
0.86315
0.863428
0.863694
0.863948
0.86419
0.864419
0.864636
0.86484
0.865031
0.86521
0.865374
0.865526
0.865663
0.865785
0.865893
0.865986
0.866064
0.866127
0.866173
0.866204
0.866219
0.866218
0.866201
0.866167
0.866117
0.866051
0.865968
0.865868
0.865752
0.86562
0.865471
0.865306
0.865125
0.864928
0.864715
0.864486
0.864243
0.863984
0.863711
0.863423
0.86312
0.862802
0.862469
0.862122
0.861759
0.861381
0.860986
0.860573
0.860148
0.859676
0.859311
0.858589
0.833368
0.833167
0.833007
0.832857
0.832688
0.832496
0.832282
0.832051
0.831804
0.831545
0.831277
0.831001
0.830721
0.830438
0.830156
0.829877
0.829603
0.829335
0.829076
0.828828
0.828592
0.828369
0.828162
0.827971
0.827797
0.827642
0.827506
0.827389
0.827293
0.827218
0.827163
0.82713
0.827119
0.827129
0.82716
0.827212
0.827286
0.82738
0.827496
0.827632
0.827787
0.827963
0.828158
0.828371
0.828602
0.828851
0.829118
0.8294
0.829699
0.830013
0.830342
0.830685
0.831042
0.831412
0.831795
0.832191
0.832598
0.833015
0.833444
0.833883
0.834331
0.834788
0.835253
0.835727
0.836208
0.836696
0.837191
0.837691
0.838198
0.838709
0.839225
0.839746
0.84027
0.840798
0.841329
0.841863
0.842399
0.842937
0.843477
0.844018
0.84456
0.845103
0.845646
0.84619
0.846733
0.847276
0.847818
0.848359
0.848899
0.849437
0.849974
0.850509
0.851041
0.851571
0.852099
0.852623
0.853144
0.853662
0.854176
0.854686
0.855192
0.855693
0.85619
0.856681
0.857168
0.857649
0.858125
0.858594
0.859058
0.859516
0.859967
0.860411
0.860848
0.861279
0.861701
0.862117
0.862524
0.862923
0.863313
0.863694
0.864065
0.864427
0.864779
0.86512
0.865451
0.865771
0.86608
0.866378
0.866664
0.866938
0.8672
0.867449
0.867687
0.867912
0.868124
0.868324
0.868511
0.868684
0.868844
0.868991
0.869122
0.86924
0.869342
0.86943
0.869502
0.869558
0.869598
0.869622
0.869631
0.869623
0.869598
0.869557
0.869499
0.869424
0.869333
0.869225
0.8691
0.868958
0.8688
0.868625
0.868434
0.868227
0.868004
0.867765
0.867511
0.867241
0.866957
0.866657
0.866342
0.866013
0.865669
0.86531
0.864936
0.864546
0.86414
0.863715
0.86328
0.862797
0.86242
0.861684
0.841846
0.841643
0.841469
0.841297
0.841104
0.840884
0.840641
0.840378
0.840098
0.839804
0.839499
0.839185
0.838865
0.838542
0.838219
0.837898
0.837581
0.83727
0.836968
0.836676
0.836396
0.836129
0.835877
0.83564
0.835421
0.83522
0.835037
0.834873
0.83473
0.834606
0.834503
0.834421
0.834359
0.834318
0.834298
0.834299
0.83432
0.834361
0.834423
0.834504
0.834605
0.834725
0.834863
0.83502
0.835194
0.835386
0.835594
0.835818
0.836058
0.836313
0.836583
0.836867
0.837165
0.837477
0.837801
0.838137
0.838485
0.838845
0.839215
0.839596
0.839987
0.840387
0.840797
0.841215
0.841641
0.842074
0.842515
0.842963
0.843417
0.843877
0.844343
0.844814
0.84529
0.84577
0.846254
0.846742
0.847233
0.847727
0.848224
0.848724
0.849225
0.849728
0.850233
0.850739
0.851245
0.851752
0.85226
0.852767
0.853275
0.853781
0.854287
0.854793
0.855297
0.855799
0.8563
0.856798
0.857294
0.857788
0.858279
0.858766
0.859251
0.859731
0.860208
0.86068
0.861149
0.861612
0.862071
0.862524
0.862973
0.863415
0.863852
0.864282
0.864707
0.865124
0.865535
0.865939
0.866335
0.866723
0.867103
0.867474
0.867836
0.868189
0.868532
0.868865
0.869188
0.8695
0.869801
0.870091
0.87037
0.870637
0.870892
0.871135
0.871366
0.871585
0.871791
0.871984
0.872164
0.872331
0.872484
0.872624
0.872749
0.872859
0.872955
0.873035
0.8731
0.873148
0.873181
0.873198
0.873198
0.873182
0.873149
0.8731
0.873034
0.87295
0.87285
0.872732
0.872598
0.872447
0.872279
0.872095
0.871893
0.871676
0.871442
0.871192
0.870927
0.870646
0.87035
0.870039
0.869713
0.869372
0.869016
0.868646
0.86826
0.867859
0.867442
0.867006
0.86656
0.866066
0.865678
0.864931
0.851225
0.851016
0.850825
0.850628
0.850406
0.850154
0.849875
0.849575
0.849255
0.848919
0.84857
0.848212
0.847847
0.847477
0.847107
0.846739
0.846374
0.846015
0.845665
0.845324
0.844995
0.844679
0.844378
0.844092
0.843822
0.843571
0.843337
0.843122
0.842926
0.84275
0.842594
0.842458
0.842342
0.842246
0.842171
0.842115
0.842079
0.842063
0.842066
0.842088
0.842128
0.842187
0.842264
0.842358
0.84247
0.842598
0.842743
0.842903
0.843078
0.843269
0.843474
0.843693
0.843926
0.844172
0.844431
0.844702
0.844985
0.84528
0.845585
0.845902
0.846228
0.846565
0.846911
0.847266
0.84763
0.848002
0.848382
0.84877
0.849165
0.849566
0.849974
0.850388
0.850807
0.851232
0.851662
0.852097
0.852536
0.852979
0.853426
0.853876
0.854329
0.854785
0.855243
0.855704
0.856167
0.856631
0.857097
0.857564
0.858031
0.858499
0.858968
0.859437
0.859905
0.860373
0.86084
0.861307
0.861771
0.862235
0.862696
0.863155
0.863612
0.864065
0.864516
0.864964
0.865408
0.865848
0.866285
0.866717
0.867144
0.867566
0.867983
0.868395
0.868802
0.869202
0.869596
0.869983
0.870364
0.870737
0.871102
0.871459
0.871808
0.872148
0.872478
0.8728
0.873111
0.873412
0.873702
0.873982
0.87425
0.874507
0.874753
0.874987
0.875208
0.875417
0.875614
0.875799
0.87597
0.876129
0.876273
0.876404
0.87652
0.876622
0.876709
0.876781
0.876836
0.876877
0.876901
0.876909
0.8769
0.876875
0.876833
0.876774
0.876698
0.876605
0.876495
0.876368
0.876224
0.876063
0.875885
0.87569
0.875478
0.87525
0.875006
0.874745
0.874468
0.874176
0.873869
0.873546
0.873208
0.872856
0.872488
0.872106
0.871709
0.871297
0.870869
0.870423
0.869967
0.869464
0.869065
0.868308
0.861897
0.861676
0.861461
0.861232
0.860971
0.860677
0.860353
0.860003
0.859631
0.859242
0.858838
0.858424
0.858002
0.857576
0.857149
0.856723
0.856301
0.855885
0.855478
0.855081
0.854695
0.854323
0.853965
0.853622
0.853296
0.852986
0.852695
0.852422
0.852167
0.851932
0.851715
0.851519
0.851341
0.851183
0.851044
0.850924
0.850823
0.850741
0.850677
0.850631
0.850604
0.850593
0.850601
0.850624
0.850665
0.850721
0.850794
0.850881
0.850983
0.8511
0.851232
0.851376
0.851535
0.851706
0.85189
0.852086
0.852295
0.852514
0.852746
0.852988
0.85324
0.853503
0.853776
0.854059
0.85435
0.854651
0.85496
0.855277
0.855602
0.855934
0.856274
0.856621
0.856974
0.857333