/*--------------------------------*- C++ -*----------------------------------*\
  =========                 |
  \\      /  F ield         | OpenFOAM: The Open Source CFD Toolbox
   \\    /   O peration     | Website:  https://openfoam.org
    \\  /    A nd           | Version:  7
     \\/     M anipulation  |
\*---------------------------------------------------------------------------*/
FoamFile
{
    version     2.0;
    format      ascii;
    class       volScalarField;
    location    "3.2";
    object      alpha.water;
}
// * * * * * * * * * * * * * * * * * * * * * * * * * * * * * * * * * * * * * //

dimensions      [0 0 0 0 0 0 0];

internalField   nonuniform List<scalar> 
6000
(
0
0
0
0
0
0
0
0
0
0
0
0
0
0
0
0
0
0
0
0
0
0
0
0
0
0
0
0
0
0
0
0
0
0
0
0
0
0
0
0
0
0
0
0
0
0
0
0
0
0
0
0
0
0
0
0
0
0
0
0
0
0
0
0
0
0
0
0
0
0
0
0
0
0
0
0
0
0
0
0
0
0
0
0
0
0
0
0
0
0
0
0
0
0
0
0
0
0
0
0
0
0
0
0
0
0
0
0
0
0
0
0
0
0
0
0
0
0
0
0
0
0
0
0
0
0
0
0
0
0
0
0
0
0
0
0
0
0
0
0
0
0
0
0
0
0
0
0
0
0
0
0
0
0
0
0
0
0
0
0
0
0
0
0
0
0
0
0
0
0
0
0
0
0
0
0
0
0
0
0
0
0
0
0
0
0
0
0
0
0
0
0
0
0
0
0
0
0
0
0
0
0
0
0
0
0
0
0
0
0
0
0
0
0
0
0
0
0
0
0
0
0
0
0
0
0
0
0
0
0
0
0
0
0
0
0
0
0
0
0
0
0
0
0
0
0
0
0
0
0
0
0
0
0
0
0
0
0
0
0
0
0
0
0
0
0
0
0
0
0
0
0
0
0
0
0
0
0
0
0
0
0
0
0
0
0
0
0
0
0
0
0
0
0
0
0
0
0
0
0
0
0
0
0
0
0
0
0
0
0
0
0
0
0
0
0
0
0
0
0
0
0
0
0
0
0
0
0
0
0
0
0
0
0
0
0
0
0
0
0
0
0
0
0
0
0
0
0
0
0
0
0
0
0
0
0
0
0
0
0
0
0
0
0
0
0
0
0
0
0
0
0
0
0
0
0
0
0
0
0
0
0
0
0
0
0
0
0
0
0
0
0
0
0
0
0
0
0
0
0
0
0
0
0
0
0
0
0
0
2.4554863761042e-78
2.531403326338e-76
1.2940973353504e-74
4.3939981791773e-73
1.1148975950483e-71
2.254050237177e-70
3.7827896176786e-69
5.4201524550782e-68
6.7683975943262e-67
7.48271440707e-66
7.4152608936305e-65
6.6533214689717e-64
5.4499083513659e-63
4.103877078375e-62
2.8577790307822e-61
1.8497093666553e-60
1.117758535871e-59
6.3306825558525e-59
3.3721969999842e-58
1.6945961625816e-57
8.0558104639381e-57
3.6317851646016e-56
1.5562427949389e-55
6.3514174816827e-55
2.4735108573213e-54
9.2077502746948e-54
3.2815351542528e-53
1.1212937985088e-52
3.6784802748692e-52
1.1600325680147e-51
3.5207323351953e-51
1.0295121333103e-50
2.9034165049048e-50
7.9046452734965e-50
2.0794155303827e-49
5.2899713690816e-49
1.3024607079985e-48
3.1060024856524e-48
7.1791554980368e-48
1.6094277504273e-47
3.50165237026e-47
7.3984475898774e-47
1.518880757566e-46
3.0315151434459e-46
5.8853810588422e-46
1.1119450878289e-45
2.045461135037e-45
3.6651737511758e-45
6.4000081802642e-45
1.0895025680873e-44
1.8088780959574e-44
2.9301360511152e-44
4.6325598145251e-44
7.1508889168052e-44
1.0780773175007e-43
1.5879232454315e-43
2.2857693667832e-43
3.2165269206907e-43
4.4260621277152e-43
5.9571997377234e-43
7.8446872003984e-43
1.0109470549964e-42
1.2752833152742e-42
1.5751167455793e-42
1.9052219516981e-42
2.2573582866636e-42
2.620410954592e-42
2.9808566899521e-42
3.3235414603827e-42
3.6327242466852e-42
3.8932748947142e-42
4.0919103752551e-42
4.2183288754764e-42
4.2660928431734e-42
4.233166764322e-42
4.1220502169665e-42
3.9394839654577e-42
3.695785048659e-42
3.4038967597163e-42
3.0782764556714e-42
2.7337423920211e-42
2.384413336474e-42
2.0428341631489e-42
1.7193494789576e-42
1.4217551768831e-42
1.1552170143561e-42
9.2241695266272e-43
7.2387140181435e-43
5.5835435582356e-43
4.2336528774848e-43
1.0776727966259e-42
0
0
0
0
0
0
0
-2.2749685283966e-68
-2.2265197290256e-66
-1.0845185079078e-64
-3.5051822951949e-63
-8.4559303726393e-62
-1.6239594551172e-60
-2.5860268269062e-59
-3.5116902993466e-58
-4.1506884694407e-57
-4.3372815350383e-56
-4.0562871223229e-55
-3.4287311412631e-54
-2.6408254912281e-53
-1.8657951231047e-52
-1.2160657120222e-51
-7.3467234229983e-51
-4.1308245387759e-50
-2.1691181114679e-49
-1.0668320239174e-48
-4.926339475578e-48
-2.1399921072854e-47
-8.7578152738123e-47
-3.3797605119151e-46
-1.2303525771509e-45
-4.223174234321e-45
-1.3647860677644e-44
-4.1396350806993e-44
-1.1717670336326e-43
-3.0627304883513e-43
-7.2400383487063e-43
-1.4766789962594e-42
-2.2482758557612e-42
-6.0644065525683e-43
1.3688069079537e-41
7.5662797685947e-41
2.9163552291285e-40
9.5801237087292e-40
2.8471471766783e-39
7.8591766716121e-39
2.0436298495113e-38
5.0490761206929e-38
1.1920049326833e-37
2.6999197991262e-37
5.8848318609001e-37
1.2371973457988e-36
2.5134865868739e-36
4.94214096123e-36
9.4171199101089e-36
1.7408836966112e-35
3.125310276174e-35
5.4533446765652e-35
9.2558227609331e-35
1.5291619930225e-34
2.4606857706962e-34
3.8590354146075e-34
5.901444518544e-34
8.8047250724883e-34
1.2822072127133e-33
1.8233937603356e-33
2.5331839932699e-33
3.4394715626323e-33
4.5658499510549e-33
5.9280933464048e-33
7.5304953862132e-33
9.3625136738454e-33
1.139623098841e-32
1.3585133850273e-32
1.5864612741344e-32
1.8154408467658e-32
2.0362985915181e-32
2.2393545172447e-32
2.4151125540338e-32
2.555006601081e-32
2.6520993385524e-32
2.7016536573957e-32
2.7015111584078e-32
2.6522363617838e-32
2.557015085855e-32
2.4213260395736e-32
2.2524312335886e-32
2.0587495159309e-32
1.8491861466673e-32
1.6324894750047e-32
1.4166948487684e-32
1.2086985433502e-32
1.0139840807186e-32
8.3650314849815e-33
6.7869618517468e-33
5.4162539763824e-33
4.2518628481817e-33
3.2836243814885e-33
2.4949151424463e-33
6.4410614278633e-33
0
0
0
0
0
0
-1.0091940959756e-66
-1.0188886826672e-64
-5.1197983141647e-63
-1.7072138466e-61
-4.2499100349535e-60
-8.4246401848964e-59
-1.3852398072777e-57
-1.9432443153778e-56
-2.3741322198912e-55
-2.5661802525231e-54
-2.4846106785807e-53
-2.1765628319141e-52
-1.739468338987e-51
-1.277044624689e-50
-8.6636548927866e-50
-5.4589051400724e-49
-3.2087397128607e-48
-1.7663090583811e-47
-9.1365988553039e-47
-4.4545672890554e-46
-2.0526126211884e-45
-8.9607896151198e-45
-3.7142981430032e-44
-1.4647418125809e-43
-5.5053125251038e-43
-1.9753826640954e-42
-6.7766812333411e-42
-2.2257179778177e-41
-7.007266555601e-41
-2.1171041323636e-40
-6.1446214142183e-40
-1.7147804456985e-39
-4.6051304240287e-39
-1.1910059193074e-38
-2.9682586546629e-38
-7.132470439798e-38
-1.6531710222276e-37
-3.6972124891659e-37
-7.9798079144084e-37
-1.6622170243103e-36
-3.3411403331165e-36
-6.4780559470602e-36
-1.2106905305834e-35
-2.1785597059736e-35
-3.7678772991759e-35
-6.2468065069541e-35
-9.8869044267582e-35
-1.4839724557261e-34
-2.0885787194361e-34
-2.6985883623769e-34
-3.0551110684613e-34
-2.6345493511562e-34
-4.9525825805402e-35
4.9215611022772e-34
1.603055687154e-33
3.6362254549854e-33
7.0811230701631e-33
1.2582359288469e-32
2.0946194179931e-32
3.3127995203514e-32
5.0194398486229e-32
7.3255906320335e-32
1.0336921019113e-31
1.4141341364708e-31
1.8794992552895e-31
2.4308114799058e-31
3.063270526804e-31
3.7654022114996e-31
4.5187813050973e-31
5.2984615088119e-31
6.0741633833903e-31
6.812167938711e-31
7.4777576973889e-31
8.0379570120482e-31
8.464266123099e-31
8.7350704130123e-31
8.8374411344954e-31
8.7681213559179e-31
8.533598015066e-31
8.1492797714761e-31
7.6379113706255e-31
7.0274414388693e-31
6.3486104133725e-31
5.6325342228715e-31
4.9085301934407e-31
4.2023732341481e-31
3.5350950788332e-31
2.9223605888554e-31
2.3743847026632e-31
1.8963000917316e-31
1.4888533239395e-31
1.1492966157094e-31
8.72350028443e-32
2.2334952908942e-31
0
0
0
0
0
3.350341765291e-68
-4.7019232846683e-65
-4.8698871841296e-63
-2.4522664757957e-61
-8.1497155429164e-60
-2.0179201237525e-58
-3.9753295414984e-57
-6.4935734903367e-56
-9.0483225377546e-55
-1.0980722245512e-53
-1.1790644637426e-52
-1.1342152581166e-51
-9.8735623795085e-51
-7.8428869730434e-50
-5.7243169419986e-49
-3.8617775456184e-48
-2.4203539138064e-47
-1.415539576814e-46
-7.7553951083912e-46
-3.9940735089333e-45
-1.9394815821691e-44
-8.9043238951795e-44
-3.8746388863192e-43
-1.601560391147e-42
-6.3010794605388e-42
-2.3639916883644e-41
-8.4716383074958e-41
-2.9043539278817e-40
-9.5391169411224e-40
-3.005455453209e-39
-9.0944982932441e-39
-2.6460387235678e-38
-7.409834612926e-38
-1.9990681775354e-37
-5.2003642501259e-37
-1.3055021843978e-36
-3.16505728352e-36
-7.4155112424436e-36
-1.6800619102295e-35
-3.6827925875291e-35
-7.8147304777584e-35
-1.6059265903105e-34
-3.1972336462266e-34
-6.168675556558e-34
-1.1536576452076e-33
-2.0916564569709e-33
-3.6766238193796e-33
-6.2649544675759e-33
-1.0346561072876e-32
-1.6553901156954e-32
-2.564124871348e-32
-3.8412556662546e-32
-5.5571914808033e-32
-7.7469928166587e-32
-1.037249690112e-31
-1.3271264545771e-31
-1.6094136325262e-31
-1.8236584130412e-31
-1.8773024057014e-31
-1.6407124813094e-31
-9.4539290427019e-32
4.1297956346914e-32
2.6653116281848e-31
6.0528801041138e-31
1.0804367011601e-30
1.7107586127243e-30
2.5078624804704e-30
3.4732210314283e-30
4.5957737231495e-30
5.8505347583942e-30
7.1985632262782e-30
8.5884963079596e-30
9.9596370895186e-30
1.1246358872489e-29
1.2383378173834e-29
1.3311297835363e-29
1.3981759177517e-29
1.4361581200947e-29
1.4435399659955e-29
1.4206525781391e-29
1.3695987149883e-29
1.2939950458832e-29
1.1985919390733e-29
1.0888223222926e-29
9.703350043317e-30
8.4856356315699e-30
7.2837114437456e-30
6.1379677534342e-30
5.0791288018497e-30
4.1278912235408e-30
3.295463889015e-30
2.5847768125155e-30
1.9921003473259e-30
1.5088277987879e-30
3.8197562842904e-30
0
0
0
0
0
1.6949459733714e-66
-1.0832226615615e-63
-1.1608784595836e-61
-5.8842545592036e-60
-1.9560968997435e-58
-4.8332495101135e-57
-9.4908560067735e-56
-1.5443759714623e-54
-2.1430323326267e-53
-2.5894096779198e-52
-2.7680428049305e-51
-2.6508006620834e-50
-2.2972044965353e-49
-1.8165860332072e-48
-1.3200097180294e-47
-8.8662631783894e-47
-5.5330503353608e-46
-3.2223879142719e-45
-1.7582157946075e-44
-9.0186923680485e-44
-4.3623811625923e-43
-1.9952845820621e-42
-8.6508959749856e-42
-3.5633942030907e-41
-1.3973203017077e-40
-5.2259184354863e-40
-1.86724317975e-39
-6.3839198492091e-39
-2.091439210213e-38
-6.5742961862135e-38
-1.9853229491102e-37
-5.7661175018867e-37
-1.6123644266656e-36
-4.3450495913857e-36
-1.1294644021009e-35
-2.8344146676514e-35
-6.8723958704478e-35
-1.6111038970676e-34
-3.6542917609321e-34
-8.0245174996736e-34
-1.7069517082304e-33
-3.5191678518287e-33
-7.0353302972307e-33
-1.3644054203337e-32
-2.5679368856751e-32
-4.6919426141567e-32
-8.3247355453392e-32
-1.4346104157435e-31
-2.401657722155e-31
-3.9060431380212e-31
-6.1717551586516e-31
-9.4727704603405e-31
-1.4120046939306e-30
-2.0431869174813e-30
-2.8682748727776e-30
-3.9027907572218e-30
-5.140392176489e-30
-6.5411372856687e-30
-8.0191877122757e-30
-9.4318620662958e-30
-1.057250116362e-29
-1.1169848934778e-29
-1.0896423963814e-29
-9.3875493424788e-30
-6.2713233469221e-30
-1.2079876667535e-30
6.0648413860821e-30
1.5686393438114e-29
2.7632892771184e-29
4.1690308807448e-29
5.7445422486684e-29
7.4298834444967e-29
9.1500592588138e-29
1.0820578114737e-28
1.2354427920425e-28
1.3669654649499e-28
1.4696617855787e-28
1.5384031150217e-28
1.5703068992566e-28
1.5649101767213e-28
1.5240957790805e-28
1.4517944541319e-28
1.3535137233757e-28
1.2357620853967e-28
1.1054432970839e-28
9.6929026288448e-29
8.3339380134072e-29
7.0286173029526e-29
5.8162221219027e-29
4.723656526275e-29
3.7660423387827e-29
2.9481875544269e-29
2.2665899830237e-29
1.7116550178173e-29
4.2766447148022e-29
0
0
0
0
3.271562164346e-78
4.2753766974494e-65
-1.6424525679172e-62
-1.8345669976788e-60
-9.3795487971725e-59
-3.1228825268034e-57
-7.7077365728229e-56
-1.5099596590501e-54
-2.4495458403807e-53
-3.3873269225841e-52
-4.0777072506519e-51
-4.3421672853702e-50
-4.141777532526e-49
-3.5748694346564e-48
-2.8154928604121e-47
-2.037555932312e-46
-1.3630435512863e-45
-8.4718537269598e-45
-4.914152336218e-44
-2.6706423765665e-43
-1.3645163718916e-42
-6.5746402922188e-42
-2.9956465222766e-41
-1.293929704594e-40
-5.3101435032058e-40
-2.0747342636434e-39
-7.7319149301466e-39
-2.753085298403e-38
-9.3807973107571e-38
-3.0631855648341e-37
-9.5983927465833e-37
-2.8896858686359e-36
-8.368086436837e-36
-2.3333851409566e-35
-6.2713456493305e-35
-1.6261066153962e-34
-4.0712160603102e-34
-9.8499490940778e-34
-2.3046397072734e-33
-5.2183591512815e-33
-1.1442179915621e-32
-2.431027247532e-32
-5.0074963481545e-32
-1.000521552503e-31
-1.940057288881e-31
-3.6523674596081e-31
-6.6784818311873e-31
-1.1865269781472e-30
-2.0488405186983e-30
-3.439403543397e-30
-5.6142832477486e-30
-8.9126960194135e-30
-1.3761546180506e-29
-2.0666955026304e-29
-3.0186074775941e-29
-4.2872737386822e-29
-5.9192417760852e-29
-7.9405995338277e-29
-1.0342791075521e-28
-1.3067201739607e-28
-1.5990655749132e-28
-1.8914650094177e-28
-2.1561490031867e-28
-2.3580298929033e-28
-2.4565021885563e-28
-2.4085023854029e-28
-2.1726850093525e-28
-1.7143477266525e-28
-1.0105359195281e-28
-5.4621791489174e-30
1.1403766199782e-28
2.5403738452742e-28
4.0911089778475e-28
5.7214520677078e-28
7.3488678841225e-28
8.886443665194e-28
1.0250635275626e-27
1.1368765930787e-27
1.2185345755833e-27
1.2666461378517e-27
1.2801777127956e-27
1.2604038320646e-27
1.2106310281543e-27
1.1357467489171e-27
1.0416625178197e-27
9.347263061355e-28
8.211733118228e-28
7.0666955194719e-28
5.9598254456418e-28
4.9279187175925e-28
3.9963309742098e-28
3.1795385811064e-28
2.4825218109849e-28
1.9026421825476e-28
1.4317067637094e-28
3.5260923288414e-28
0
0
0
0
1.6965358893256e-76
7.1691450894295e-64
-1.8397191825319e-61
-2.1601531516976e-59
-1.1159185181215e-57
-3.7243121965852e-56
-9.1872243369204e-55
-1.7963273201152e-53
-2.9062805749844e-52
-4.0062965630555e-51
-4.8062997719456e-50
-5.0995065876632e-49
-4.8459669109298e-48
-4.1666726205368e-47
-3.2688513996349e-46
-2.3563884879081e-45
-1.5701291820727e-44
-9.720511432498e-44
-5.6162300771158e-43
-3.0401939273554e-42
-1.5472472939062e-41
-7.4260287901564e-41
-3.3704573491648e-40
-1.4502208085513e-39
-5.9288142691079e-39
-2.3076848394787e-38
-8.5677957291792e-38
-3.0393912824591e-37
-1.031834016964e-36
-3.3571147602703e-36
-1.0481787692879e-35
-3.1445193119215e-35
-9.0744692811918e-35
-2.5217361120375e-34
-6.7549329348453e-34
-1.7457736510159e-33
-4.3568849744321e-33
-1.0508401201484e-32
-2.4513077493805e-32
-5.5343495411788e-32
-1.2101237209453e-31
-2.5642205624159e-31
-5.2685775179553e-31
-1.0502107859749e-30
-2.031985846105e-30
-3.8179095894336e-30
-6.969070107132e-30
-1.2363331502168e-29
-2.1323497277115e-29
-3.5766569513649e-29
-5.8358996246812e-29
-9.265023173169e-29
-1.4314257443716e-28
-2.1524183822804e-28
-3.1502514425763e-28
-4.4876418633951e-28
-6.2215988076699e-28
-8.392809201393e-28
-1.1012545264011e-27
-1.4048277042312e-27
-1.7409907873564e-27
-2.0939161923217e-27
-2.4404955564701e-27
-2.7507408088977e-27
-2.9892386061899e-27
-3.1177133903949e-27
-3.0985763098576e-27
-2.8991430317758e-27
-2.4960301145773e-27
-1.8791262500819e-27
-1.0545135133953e-27
-4.5801366285081e-29
1.1064722166683e-27
2.3474496703944e-27
3.6123499303365e-27
4.8321514741254e-27
5.9398592524263e-27
6.8765620460988e-27
7.5965247271402e-27
8.0707169323411e-27
8.2884240382215e-27
8.2568713830019e-27
7.9990672336116e-27
7.5502889795758e-27
6.9537698761126e-27
6.2561786921013e-27
5.5034290227001e-27
4.7372308561278e-27
3.9926347439278e-27
3.2966504671465e-27
2.6678744907315e-27
2.1169520203181e-27
1.647638083546e-27
1.2582062373712e-27
9.4297471255102e-28
2.2871612189125e-27
0
0
0
0
4.3661069332777e-75
8.9902136077735e-63
-1.6185731128934e-60
-2.0200515433745e-58
-1.056351214912e-56
-3.5366393717989e-55
-8.7234511642468e-54
-1.7028895697011e-52
-2.7483618044476e-51
-3.7774417862428e-50
-4.516948544867e-49
-4.775837183882e-48
-4.5219458446525e-47
-3.8735887036255e-46
-3.0273827561879e-45
-2.1739282344208e-44
-1.442928263882e-43
-8.8981435740222e-43
-5.1209411737949e-42
-2.7611965951982e-41
-1.3997345829865e-40
-6.6916471223309e-40
-3.0252244053151e-39
-1.2965769525734e-38
-5.2799694205369e-38
-2.0471245026776e-37
-7.5708839034482e-37
-2.6753464036067e-36
-9.0474469010726e-36
-2.9323292245406e-35
-9.1205391327071e-35
-2.7257567447723e-34
-7.8363116109325e-34
-2.1694952458009e-33
-5.7897637076709e-33
-1.4908087576644e-32
-3.7069720909043e-32
-8.9085269585842e-32
-2.0706753188871e-31
-4.6585091750719e-31
-1.0150803246511e-30
-2.1435990727748e-30
-4.3896521525005e-30
-8.7216183242991e-30
-1.6821529391608e-29
-3.150944744321e-29
-5.7347338477555e-29
-1.0145141609578e-28
-1.7451606340227e-28
-2.9200470753598e-28
-4.7539024060246e-28
-7.5323198225814e-28
-1.1617684516475e-27
-1.7446066339278e-27
-2.5510306779799e-27
-3.6324743795775e-27
-5.0368393203651e-27
-6.800617924301e-27
-8.939195313213e-27
-1.143621559738e-26
-1.4233425387229e-26
-1.7222833165171e-26
-2.0243215496848e-26
-2.3082842559279e-26
-2.5489719124162e-26
-2.7189657500907e-26
-2.7911228680292e-26
-2.7415281496801e-26
-2.5525541121141e-26
-2.2156067492297e-26
-1.7331283206286e-26
-1.1194964772584e-26
-4.0059756128616e-27
3.8796041492031e-27
1.2038251338306e-26
2.0017138432504e-26
2.7375809781013e-26
3.3726065534061e-26
3.8765088964451e-26
4.2297996339535e-26
4.4247674733214e-26
4.4651677764303e-26
4.3647731050388e-26
4.1450770396659e-26
3.8325213881614e-26
3.4556300480179e-26
3.0423881592789e-26
2.6181188203897e-26
2.204002218587e-26
1.8162741862564e-26
1.4660497034325e-26
1.1596523172684e-26
8.9929664900317e-27
6.8396597488898e-27
5.1034401947546e-27
1.2181108908243e-26
0
0
0
0
7.4585092782843e-74
8.9927485554293e-62
-1.1597115718615e-59
-1.5616714045631e-57
-8.2841541564325e-56
-2.7844588415277e-54
-6.8703618571355e-53
-1.3393420756143e-51
-2.1567398672995e-50
-2.9559948093877e-49
-3.5235556720296e-48
-3.712901310699e-47
-3.5030471841482e-46
-2.9897858580896e-45
-2.3278926997396e-44
-1.6652626155982e-43
-1.1010423943361e-42
-6.7634062835115e-42
-3.8771393880694e-41
-2.082313661146e-40
-1.0514181448787e-39
-5.0065566424479e-39
-2.2544292735216e-38
-9.6238255721678e-38
-3.9034578105738e-37
-1.5074042306001e-36
-5.5526287236612e-36
-1.9543313144739e-35
-6.5827929608279e-35
-2.1250201098535e-34
-6.5832067927142e-34
-1.9596189647073e-33
-5.6113209214245e-33
-1.5473295892471e-32
-4.1129948670539e-32
-1.0548621635083e-31
-2.6126048282775e-31
-6.2538321429644e-31
-1.4479209098398e-30
-3.2447440817449e-30
-7.0427867007222e-30
-1.4815298856903e-29
-3.0222770227622e-29
-5.9821320820016e-29
-1.1494760931589e-28
-2.1452378126648e-28
-3.8902475515851e-28
-6.8578142622521e-28
-1.1756201192406e-27
-1.9605272014278e-27
-3.1815620417104e-27
-5.0256410034865e-27
-7.7291531791011e-27
-1.1575783407018e-26
-1.6885609036259e-26
-2.3992737487225e-26
-3.3209677401845e-26
-4.4778411465193e-26
-5.8810718301616e-26
-7.5223397979452e-26
-9.3677168230905e-26
-1.1353040035644e-25
-1.3381977272737e-25
-1.5327867560492e-25
-1.7040047437836e-25
-1.8354770362356e-25
-1.9110067570127e-25
-1.9163111451511e-25
-1.8407983794357e-25
-1.6791375160735e-25
-1.4323761884901e-25
-1.1084065177529e-25
-7.2166446972628e-26
-2.9205829621916e-26
1.5676176797491e-26
5.9957922099787e-26
1.0119521591058e-25
1.3724183956585e-25
1.6642923810333e-25
1.876852127825e-25
2.0058125883675e-25
2.0530888590948e-25
2.0259492169794e-25
1.9357291043447e-25
1.7963139362701e-25
1.6225995204627e-25
1.4291090853088e-25
1.2288951637095e-25
1.0327946281377e-25
8.4904718528111e-26
6.8324023463631e-26
5.3851117939719e-26
4.1592332294356e-26
3.1493156951727e-26
2.3386544252828e-26
5.4891857241869e-26
0
0
0
0
9.519304820161e-73
7.4738370265772e-61
-6.9112276203472e-59
-1.025774230538e-56
-5.5336433004937e-55
-1.8689267710585e-53
-4.6148980653089e-52
-8.9867490090816e-51
-1.4441267638948e-49
-1.9740101123415e-48
-2.3458445206137e-47
-2.4637230878335e-46
-2.3163612721859e-45
-1.9698149456497e-44
-1.5280280878896e-43
-1.0889362780244e-42
-7.1721741198378e-42
-4.3885429596205e-41
-2.5058747394342e-40
-1.3405253418111e-39
-6.741791201616e-39
-3.1974334083251e-38
-1.4340169485539e-37
-6.0969733396513e-37
-2.462969957642e-36
-9.4727709535698e-36
-3.4751898036736e-35
-1.2181640741582e-34
-4.0863989902376e-34
-1.3137478020212e-33
-4.0532220155734e-33
-1.2015564726191e-32
-3.4264410022702e-32
-9.4094189719618e-32
-2.4907869080061e-31
-6.3616481112468e-31
-1.5690647849951e-30
-3.7402880622605e-30
-8.6237216353456e-30
-1.9245175710292e-29
-4.1598656432057e-29
-8.7144876398925e-29
-1.7703841796484e-28
-3.4897818571545e-28
-6.6782226311564e-28
-1.2412734737036e-27
-2.2418985896416e-27
-3.9363203364014e-27
-6.7214234109366e-27
-1.1165677752747e-26
-1.8051143599835e-26
-2.8408523525804e-26
-4.3534197414206e-26
-6.4975285485899e-26
-9.4467498761264e-26
-1.3381206030204e-25
-1.8468336623321e-25
-2.4836881685319e-25
-3.2545596661381e-25
-4.1549819022936e-25
-5.1670558480936e-25
-6.2571907892016e-25
-7.3752877812825e-25
-8.4558933659322e-25
-9.4216435600224e-25
-1.0188998796137e-24
-1.0675882816289e-24
-1.0810449932216e-24
-1.0539895165253e-24
-9.8380650001816e-25
-8.7106735980172e-25
-7.1971926899697e-25
-5.3689304393505e-25
-3.3233718197785e-25
-1.175420419883e-25
9.5334632068104e-26
2.9460071468243e-25
4.700755170044e-25
6.1392082499603e-25
7.2116711035782e-25
7.8989407981531e-25
8.2107619231566e-25
8.1814848949782e-25
7.8637924669118e-25
7.3215005632075e-25
6.6224106567772e-25
5.8320230736325e-25
5.0086643948283e-25
4.2002945974049e-25
3.4429922746492e-25
2.7609066904602e-25
2.1673330435464e-25
1.6665141463425e-25
1.2557860980418e-25
9.2774765948063e-26
2.139861862534e-25
0
0
0
0
9.678937216698e-72
5.3080733283592e-60
-3.4563292829975e-58
-5.8382590151634e-56
-3.212690280981e-54
-1.0913702770733e-52
-2.6982445224586e-51
-5.2501485212682e-50
-8.420725834822e-49
-1.1481181105216e-47
-1.3603433434395e-46
-1.424068839257e-45
-1.3342860704483e-44
-1.1305997879447e-43
-8.7379329992705e-43
-6.2035151321093e-42
-4.0702037827586e-41
-2.4808085154769e-40
-1.4109822877703e-39
-7.5181561841223e-39
-3.7659344910514e-38
-1.7788887821861e-37
-7.9458665033371e-37
-3.3645864056522e-36
-1.3536245658712e-35
-5.1847711359243e-35
-1.8942465719078e-34
-6.6124339886722e-34
-2.2089514785725e-33
-7.0719567646574e-33
-2.1727141062716e-32
-6.4137713027816e-32
-1.821261252236e-31
-4.9801714088243e-31
-1.3126942476072e-30
-3.3383781591969e-30
-8.1985948309565e-30
-1.9459450913422e-29
-4.4672702665718e-29
-9.9262941317567e-29
-2.1362844554011e-28
-4.4558857077805e-28
-9.0130405892011e-28
-1.7689455140377e-27
-3.3704815052389e-27
-6.237606067973e-27
-1.1217412666351e-26
-1.9611144129013e-26
-3.3344334298817e-26
-5.5158215314519e-26
-8.8800250390999e-26
-1.391769029399e-25
-2.1241646726177e-25
-3.1577767359484e-25
-4.5733579095279e-25
-6.4538744267813e-25
-8.8754269051688e-25
-1.1895197534671e-24
-1.5537211857311e-24
-1.9777421402874e-24
-2.4530279177334e-24
-2.963942354946e-24
-3.4875138059257e-24
-3.994079126568e-24
-4.4489448436948e-24
-4.8150373312992e-24
-5.0563416881567e-24
-5.1417632288515e-24
-5.0489210174792e-24
-4.7673306095012e-24
-4.3004721136501e-24
-3.6663711393661e-24
-2.8965258902794e-24
-2.0332586080428e-24
-1.1258091198261e-24
-2.2567775744732e-25
6.1817041988306e-25
1.3636258458747e-24
1.978761706572e-24
2.4438245401374e-24
2.7517593636542e-24
2.9073559223494e-24
2.9252817242939e-24
2.8273842395597e-24
2.6396877421547e-24
2.389483458822e-24
2.1028306477181e-24
1.8026736114942e-24
1.5076594733298e-24
1.2316343789604e-24
9.8371560027859e-25
7.6879003042416e-25
5.8827491633812e-25
4.4098832651362e-25
3.2400599673758e-25
7.3389832434035e-25
0
0
0
0
8.1667080904759e-71
3.2885531207916e-59
-1.4422176215485e-57
-2.9214580136347e-55
-1.6461002727499e-53
-5.6310440872683e-52
-1.3946743468328e-50
-2.7123513384844e-49
-4.342935395406e-48
-5.9070486156561e-47
-6.9788685051409e-46
-7.2825981631112e-45
-6.8003124416687e-44
-5.7417519261144e-43
-4.4212796506786e-42
-3.1270934376191e-41
-2.0438607441361e-40
-1.2408949170158e-39
-7.0298952787981e-39
-3.7308377267553e-38
-1.8613159826915e-37
-8.7565868448823e-37
-3.8954150555422e-36
-1.642703614437e-35
-6.5815794036332e-35
-2.5104735583945e-34
-9.1337022451108e-34
-3.1750187886069e-33
-1.0561757938162e-32
-3.3670167907401e-32
-1.0300411195926e-31
-3.0276275778817e-31
-8.5603008825056e-31
-2.3306646059351e-30
-6.1165826124826e-30
-1.5487518684532e-29
-3.7868520556109e-29
-8.9485774429611e-29
-2.0452316003284e-28
-4.5243597409202e-28
-9.6937609952637e-28
-2.0129119569144e-27
-4.0533558218384e-27
-7.9196631427339e-27
-1.5022092215002e-26
-2.7675876142575e-26
-4.9547460257877e-26
-8.6234094761811e-26
-1.4596532182658e-25
-2.4037869944697e-25
-3.8527200335369e-25
-6.0117441076341e-25
-9.1351966800338e-25
-1.3521607655596e-24
-1.9499583894929e-24
-2.7402252226974e-24
-3.7529305931264e-24
-5.0097682522435e-24
-6.5184488325558e-24
-8.2668605822804e-24
-1.021799047864e-23
-1.2306645081045e-23
-1.4438992697238e-23
-1.649572369641e-23
-1.8339190786482e-23
-1.9824291053759e-23
-2.0812179359353e-23
-2.1185284596624e-23
-2.0861670769449e-23
-1.9806655162455e-23
-1.803982494146e-23
-1.5636168730137e-23
-1.2720874079961e-23
-9.4582892709367e-24
-6.036433929876e-24
-2.6491024689144e-24
5.2208190394828e-25
3.3233850416031e-24
5.640617140497e-24
7.4055972096708e-24
8.5971244154599e-24
9.2369459429971e-24
9.3818373771579e-24
9.1132870066948e-24
8.5263719709823e-24
7.7192586820928e-24
6.7844202954897e-24
5.8022287841765e-24
4.8371369308979e-24
3.9362879411527e-24
3.1301222679779e-24
2.4344084087059e-24
1.8530976117047e-24
1.3814652888857e-24
1.0091203503235e-24
2.2434475410915e-24
0
0
0
0
5.8822460019541e-70
1.8053581446501e-58
-4.8521244629492e-57
-1.2993408817486e-54
-7.5323754677051e-53
-2.5983407339081e-51
-6.4509742700616e-50
-1.2543850662801e-48
-2.0054910768054e-47
-2.7215733308664e-46
-3.2064918811388e-45
-3.3356541021015e-44
-3.1043444696009e-43
-2.6118986428177e-42
-2.0038893744962e-41
-1.412005247451e-40
-9.1935107267412e-40
-5.5599545953193e-39
-3.1373834761001e-38
-1.6583933888593e-37
-8.2403634548045e-37
-3.8609199899799e-36
-1.7105094804693e-35
-7.1834655532717e-35
-2.8661312147867e-34
-1.0886830228591e-33
-3.9442249335103e-33
-1.3652734787849e-32
-4.5222840724329e-32
-1.4355063148454e-31
-4.3726289885289e-31
-1.2797021660249e-30
-3.6025008287707e-30
-9.7654833195224e-30
-2.5515969932601e-29
-6.4322781464577e-29
-1.5657831747689e-28
-3.6835647617519e-28
-8.3812485444287e-28
-1.845722407294e-27
-3.9367331845858e-27
-8.1375673624854e-27
-1.631183529338e-26
-3.172529895758e-26
-5.9900933221177e-26
-1.098506549996e-25
-1.9575623321765e-25
-3.3912671155989e-25
-5.7137149588473e-25
-9.3658964605149e-25
-1.4941895888367e-24
-2.320738364635e-24
-3.5102350932236e-24
-5.1718694874795e-24
-7.4243362684122e-24
-1.0386001752084e-23
-1.4160707160179e-23
-1.881974281474e-23
-2.4381467288013e-23
-3.0791027882339e-23
-3.7903451759584e-23
-4.5473781433058e-23
-5.3157713352724e-23
-6.0525245133066e-23
-6.7088172990612e-23
-7.2340106159845e-23
-7.580533681029e-23
-7.7090876764951e-23
-7.5934701977671e-23
-7.2243080070577e-23
-6.6110940404647e-23
-5.7821470100149e-23
-4.782412495012e-23
-3.6693493442025e-23
-2.5074342305367e-23
-1.3620167816647e-23
-2.9333274317128e-24
6.4857637794159e-24
1.4274646303411e-23
2.0226853583383e-23
2.4291602630972e-23
2.6557343359069e-23
2.7223298916321e-23
2.6564165759597e-23
2.4893244375101e-23
2.2528571761305e-23
1.9765379146157e-23
1.6856708170535e-23
1.400257399853e-23
1.134688416685e-23
8.980532229185e-24
6.9487138981511e-24
5.2605108917059e-24
3.8990555494473e-24
2.8310110793029e-24
6.1752908999392e-24
0
0
0
0
3.6916984068707e-69
8.8916577905644e-58
-1.1575288814155e-56
-5.1776179805879e-54
-3.1072774684977e-52
-1.0826788829279e-50
-2.696431277135e-49
-5.2444277722264e-48
-8.3742311223783e-47
-1.1340319565025e-45
-1.3325347207365e-44
-1.3820140747019e-43
-1.2819513882558e-42
-1.0748442183721e-41
-8.2165229761462e-41
-5.7680274207534e-40
-3.741196676512e-39
-2.2537576882861e-38
-1.266731007121e-37
-6.6690374706728e-37
-3.3003635067306e-36
-1.5400305670075e-35
-6.7947309385107e-35
-2.8416823549882e-34
-1.1290675110355e-33
-4.2706703944373e-33
-1.5406931248455e-32
-5.3103557351723e-32
-1.7514644047635e-31
-5.5357749124982e-31
-1.6789444511559e-30
-4.8923066633323e-30
-1.3712312264295e-29
-3.7007775629695e-29
-9.6270833342855e-29
-2.4161371735791e-28
-5.8553536326001e-28
-1.3713396780432e-27
-3.1062114834742e-27
-6.809644552383e-27
-1.4458386534928e-26
-2.9750490451478e-26
-5.9361903774667e-26
-1.1492271655057e-25
-2.1598252669406e-25
-3.9424149676518e-25
-6.9926199895468e-25
-1.2057056957752e-24
-2.0218259206312e-24
-3.2984666127083e-24
-5.2371951225927e-24
-8.0955011799612e-24
-1.2186369893645e-23
-1.786918723417e-23
-2.5529100585156e-23
-3.5542852485466e-23
-4.8230854649415e-23
-6.3797819067553e-23
-8.2267328351048e-23
-1.0341878199347e-22
-1.2673749160751e-22
-1.5138956267046e-22
-1.7623198108249e-22
-1.9986474977779e-22
-2.2072621837837e-22
-2.3722568709338e-22
-2.4790017115755e-22
-2.5157634135667e-22
-2.4751547702771e-22
-2.3551971939175e-22
-2.1598224066032e-22
-1.8987158645825e-22
-1.5865011605849e-22
-1.2413639943005e-22
-8.8329787517478e-23
-5.3220625281466e-23
-2.0610843367269e-23
8.0331237199111e-24
3.1679263000535e-23
4.9773054197702e-23
6.2225546266714e-23
6.9354769581019e-23
7.1794061523848e-23
7.0383327419874e-23
6.6058914882161e-23
5.9755164568452e-23
5.2326648283053e-23
4.4495549618056e-23
3.6824417354051e-23
2.9711225468596e-23
2.3401606971491e-23
1.8012309815266e-23
1.3560153371784e-23
9.9917213943936e-24
7.2103587016059e-24
1.5430737379274e-23
0
0
0
0
2.0508957288661e-68
3.9682758053444e-57
-5.9880403559663e-57
-1.8587085580794e-53
-1.1642993071558e-51
-4.1060239380661e-50
-1.026697704645e-48
-1.998258289427e-47
-3.1876787418914e-46
-4.3083775622309e-45
-5.0496754359613e-44
-5.2217735029576e-43
-4.8280756268288e-42
-4.0341731874246e-41
-3.0728073122661e-40
-2.1491160073204e-39
-1.3886292713024e-38
-8.3328222306521e-38
-4.6649846399263e-37
-2.4461674636487e-36
-1.2056514441407e-35
-5.6028471667567e-35
-2.4618170639767e-34
-1.0252965693321e-33
-4.0566930141979e-33
-1.5279723939329e-32
-5.4889936332589e-32
-1.8838573077767e-31
-6.1867818075148e-31
-1.9470305104014e-30
-5.8796787317389e-30
-1.7058709143069e-29
-4.7604803440227e-29
-1.2791838793652e-28
-3.3130409835274e-28
-8.2782330725143e-28
-1.9973065015166e-27
-4.6569678045537e-27
-1.0501379942419e-26
-2.2918537746978e-26
-4.8441626515003e-26
-9.9224309735856e-26
-1.9708103250927e-25
-3.7978978952381e-25
-7.1046579400416e-25
-1.2908040546401e-24
-2.2787530871169e-24