/*--------------------------------*- C++ -*----------------------------------*\
  =========                 |
  \\      /  F ield         | OpenFOAM: The Open Source CFD Toolbox
   \\    /   O peration     | Website:  https://openfoam.org
    \\  /    A nd           | Version:  7
     \\/     M anipulation  |
\*---------------------------------------------------------------------------*/
FoamFile
{
    version     2.0;
    format      ascii;
    class       volScalarField;
    location    "2.8";
    object      alpha.water;
}
// * * * * * * * * * * * * * * * * * * * * * * * * * * * * * * * * * * * * * //

dimensions      [0 0 0 0 0 0 0];

internalField   nonuniform List<scalar> 
6000
(
0
0
0
0
0
0
0
0
0
0
0
0
0
0
0
0
0
0
0
0
0
0
0
0
0
0
0
0
0
0
0
0
0
0
0
0
0
0
0
0
0
0
0
0
0
0
0
0
0
0
0
0
0
0
0
0
0
0
0
0
0
0
0
0
0
0
0
0
0
0
0
0
0
0
0
0
0
0
0
0
0
0
0
0
0
0
0
0
0
0
0
0
0
0
0
0
0
0
0
0
0
0
0
0
0
0
0
0
0
0
0
0
0
0
0
0
0
0
0
1.385753420154e-206
2.0154275986758e-206
3.2954966723078e-206
7.1113484891541e-207
8.2993569942269e-223
2.8391820057512e-187
1.9418974795537e-186
8.165126103939e-203
3.2390582891659e-203
1.4033810491145e-203
6.170994465224e-188
2.679142605969e-187
-5.1032038149618e-204
5.5405226322118e-188
1.3587676909601e-187
3.2891365124708e-187
7.1405228634279e-187
-1.7660370925437e-259
8.733677285848e-224
4.515590444654e-188
7.4262311903338e-188
8.1370717065796e-224
1.9290868606692e-188
4.3936430094598e-242
2.4424814530845e-189
0
4.6630635691618e-190
5.7626525539949e-190
0
1.1159656368286e-190
2.4917987377743e-207
1.9976484728115e-191
1.8372912850809e-191
1.557374211109e-207
2.8929986843715e-192
2.7643392247184e-207
4.0297057712444e-207
7.8473758869694e-194
8.0107435983917e-207
1.1148498937988e-194
2.8499235347058e-206
1.5145364174781e-195
3.5619241413542e-205
1.3340268756091e-196
1.0267846038584e-205
1.2980337829466e-197
6.8245826571995e-198
1.8489946834658e-204
6.4132731681807e-199
4.6865977428724e-199
2.0733174043409e-199
1.4410785941161e-199
1.8999763599823e-203
1.5769896008018e-200
2.5166268406343e-203
1.2184806166286e-201
1.8858720635983e-203
1.6151928984145e-202
9.7447053969472e-203
4.1085673695768e-203
2.7425927045327e-203
1.1371369918147e-203
7.3362088843731e-204
2.975857588084e-204
1.8383458543244e-204
9.8529350336089e-205
3.8087831837243e-205
2.2017743464936e-205
8.2492219467612e-206
4.5721864470841e-206
1.6604938811826e-206
6.6961684193522e-207
3.5051624857533e-207
1.2209892514997e-207
6.1736607066305e-208
2.0974104268934e-208
1.0275425464306e-208
4.396640063352e-209
1.4385183613994e-209
6.717442263756e-210
3.3281916272298e-210
0
0
0
0
0
0
0
0
0
0
0
0
0
0
0
0
0
0
0
2.3759173075087e-150
1.3037741291135e-146
8.0758137816005e-157
1.9569818892218e-137
5.5375539140119e-121
0
2.0045750516703e-120
2.2745766383912e-120
2.9321463586207e-122
2.0325083053527e-123
1.1301194938949e-121
1.1299665825917e-121
4.7764085146495e-121
0
1.2073528069344e-122
3.9999074295348e-122
2.3168982526545e-121
7.4617007605976e-120
3.2335451319811e-120
9.8824428462849e-121
1.0918959955887e-119
-6.5859679921808e-125
7.5121894744862e-119
5.7469146581809e-123
-1.3660801064737e-136
3.4182921074743e-122
9.8846633217034e-229
5.4517175093637e-121
1.7136353489231e-121
1.0418329995679e-121
7.307894706868e-122
1.1888691312418e-122
6.1876073530722e-122
1.1629093002688e-122
3.0899758162908e-123
2.4536569286437e-123
0
1.7828695280197e-124
0
2.9470692137761e-129
6.5139775584876e-143
9.7452183448027e-131
8.4079829033091e-128
0
4.1270807435007e-130
0
-9.7757963631986e-148
4.252676166659e-131
0
7.029647633597e-136
-1.6007866544737e-149
1.1645609407515e-134
6.0701506774292e-135
1.7406895249961e-134
1.1013732869453e-138
6.0924030831429e-202
7.8163410862976e-153
1.3749487641088e-137
1.8900732392567e-141
0
1.8586689168381e-140
-1.9082863980219e-156
9.9207230989986e-141
0
1.6399009252165e-145
1.5368438528526e-142
1.066215304999e-142
3.1106546715575e-143
-4.5199799170778e-160
5.3064644912951e-148
4.4003267108579e-145
0
3.0105853293413e-146
-1.085331420647e-163
4.2441689211295e-148
4.334775449413e-148
2.099671804356e-148
4.878854489847e-149
0
4.725789092598e-151
1.4859933551737e-150
0
0
0
0
0
0
0
0
0
0
0
0
0
0
0
0
0
-2.4646264303576e-88
-4.083559103947e-87
-4.6862202842156e-86
-3.734993794715e-85
-2.0898400029046e-84
-9.4502905532821e-84
2.6461138299204e-70
-7.3071606115295e-73
2.5822628869511e-73
-2.5155569657509e-74
-7.7165259777056e-80
-1.6246015435234e-75
2.0814434668312e-74
-1.117951291642e-76
0
-3.4851176707901e-88
3.4852421268513e-88
3.5559800006615e-74
5.0656927786033e-62
8.2476531004952e-61
1.7851541411237e-61
1.0531280805584e-62
4.173676524204e-64
-1.1173442688578e-69
3.872031240775e-63
1.714876360898e-62
6.2438334973375e-62
3.7814616076109e-61
1.9956158554613e-60
8.7491243098674e-60
2.6839006050528e-59
9.9702821942894e-59
3.3559366274658e-58
9.6019149430918e-58
3.4662784610637e-57
6.9681430346203e-57
1.8202452615591e-56
3.8626881795694e-56
7.4798294019287e-56
1.8318669197586e-55
3.4518708127941e-55
7.7162136245274e-55
1.4422775113427e-54
2.2180026463742e-54
3.6283934048151e-54
3.8374276440132e-54
4.3562813008328e-54
4.1697636268002e-54
3.9342502246577e-54
3.8649228492563e-54
3.2975839820148e-54
2.7151224301925e-54
1.7948655994895e-54
8.9607974797444e-55
3.2281606196996e-55
4.572871392857e-56
6.8358202879717e-57
4.358562960191e-58
6.6655586576822e-59
3.6382981069283e-59
3.2194214125264e-60
3.7880419069438e-61
9.2784646303069e-62
1.9054565565521e-62
3.5503784235458e-63
2.0615814966732e-63
7.5291182303957e-64
5.3532625971134e-65
2.3032000989792e-65
1.8282830049696e-66
2.8685635212776e-67
1.6102959778153e-67
5.8722300473642e-68
4.1566341834527e-69
5.5324841097179e-70
3.0523221750818e-70
1.0387882752488e-70
2.9347044177444e-71
7.3047739869693e-72
1.7129698737528e-72
4.1253326905987e-73
8.5828666974668e-74
3.8974330193304e-74
0
0
0
0
0
0
0
0
0
5.715343742685e-69
5.2191017405764e-67
1.5637881801791e-65
3.5258153993183e-64
5.9725247638874e-63
7.7785310823647e-62
1.7240036923374e-60
2.1556728107164e-59
2.2865453500789e-58
1.8608016302445e-57
1.4946204103222e-56
2.348266053932e-55
6.0008507088201e-55
4.3933074559274e-54
1.2921432365432e-53
6.1367798153674e-54
-9.6624088831733e-63
-3.4223600437116e-66
8.9295889943926e-101
0
1.1319598848533e-73
2.7106741579496e-52
-7.4184123013747e-69
0
1.0365749131627e-51
0
1.2545377474887e-46
1.813521125582e-45
9.9524999595843e-47
1.1344282575368e-46
-3.0651311800014e-54
9.5470077685059e-49
4.5588781109062e-63
1.3308987747419e-62
5.0316983811131e-62
8.9832843211059e-50
1.2833636745499e-50
2.0923975016555e-51
2.1610408803585e-59
2.2720001862766e-50
5.8613917078706e-47
2.2545436479411e-51
8.4250473624125e-49
7.5630252223899e-57
1.6011498265358e-45
1.2782935377485e-49
8.101018497368e-56
5.2832644144481e-47
3.7374139001594e-55
1.0365405446577e-47
1.5497168148022e-54
2.1122002776207e-54
8.8538521023484e-49
4.0959922638625e-54
1.6467924331672e-49
4.4571198401302e-54
4.2141674319655e-54
6.0949350133011e-51
3.5238219435027e-54
1.1453410248622e-51
1.5504963315152e-54
9.806718033778e-55
1.0650066933159e-51
1.4441485997673e-55
1.3460551452521e-52
2.5825564171562e-57
4.8248879718007e-58
1.4469293252465e-53
1.0701377546544e-57
3.5827872182606e-60
3.5958867659974e-59
1.3713438746056e-61
2.6188136086299e-62
9.4041576785774e-57
3.1915124161716e-57
2.7121558765751e-64
5.5701961925119e-57
6.261074475476e-60
2.0740371517833e-66
7.4685098500676e-60
6.235652492734e-60
2.1369943980373e-68
2.7629380454822e-62
5.3808253537652e-61
2.301376795563e-61
4.4746363085272e-62
8.4588676249104e-62
8.7907583542461e-63
1.3651483290764e-62
1.5198538944516e-63
1.7061637764124e-63
0
0
0
0
0
0
0
1.3216664094254e-59
1.6656328198812e-57
1.0312273748e-55
4.1839824328898e-54
1.2539001993639e-52
2.9670838896275e-51
5.7746624426244e-50
9.4807214821413e-49
1.3347169751922e-47
1.6329962439122e-46
1.7628250650841e-45
1.7119072740583e-44
1.5299771626246e-43
1.2861840274644e-42
1.0326195210452e-41
7.9605854458674e-41
5.8749909554469e-40
4.1207795945353e-39
2.7262526658786e-38
1.6912922832948e-37
9.8025296541038e-37
5.2982338597198e-36
2.6691513260574e-35
1.2537127747332e-34
5.4946894286823e-34
2.2493055694411e-33
8.6098312219335e-33
3.0850919726485e-32
1.0359616129981e-31
3.2634579778226e-31
9.6540709346001e-31
2.6845280618499e-30
7.0238115924127e-30
1.7308211168843e-29
4.0211022100408e-29
8.8167174000795e-29
1.8264402030335e-28
3.5785058888579e-28
6.637489922318e-28
1.166236550587e-27
1.9412366159416e-27
3.0583898150541e-27
4.5498246302984e-27
6.3550889442992e-27
8.2122305928281e-27
9.5370568531803e-27
9.896936754037e-27
9.834493543477e-27
9.548814334952e-27
8.8621132509596e-27
7.625931256844e-27
5.9531787736932e-27
4.1082638683588e-27
2.4374793202138e-27
1.2080835524387e-27
4.9037129077193e-28
1.6431969104781e-28
4.787190063875e-29
1.3156397300673e-29
3.6421390749947e-30
1.0385058338065e-30
3.0317502321228e-31
8.9676773983749e-32
2.6731189372523e-32
8.0197883593067e-33
2.4212088082933e-33
7.3482060500627e-34
2.236828951681e-34
6.8092150989293e-35
2.0668059189522e-35
6.2406984615948e-36
1.8717990560852e-36
5.5727959419969e-37
1.6466226591268e-37
4.8289342895154e-38
1.4057549148811e-38
4.0629330495143e-39
1.1660446072627e-39
3.3236666713373e-40
9.4110264905394e-41
2.647710036984e-41
7.4031454948534e-42
2.0576507158688e-42
5.6863082290461e-43
1.5627252994793e-43
4.2718336055382e-44
1.1617440097853e-44
3.1436085809217e-45
8.4687010935226e-46
2.2642281311476e-46
6.1724437010881e-47
1.3643036180912e-47
7.4319621988711e-48
0
0
0
0
0
0
1.1851256152574e-59
2.2283719981778e-57
1.8640425933707e-55
9.6897783658036e-54
3.5900999270713e-52
1.0230050441208e-50
2.3539465198949e-49
4.5163292445269e-48
7.3796747648611e-47
1.0432907353574e-45
1.2926203902846e-44
1.4179425508484e-43
1.3899974233063e-42
1.2338085780089e-41
1.010826315371e-40
7.8046455251105e-40
5.7644533579568e-39
4.0945218565057e-38
2.7911698345726e-37
1.8160256359667e-36
1.1207676974025e-35
6.5244416781302e-35
3.5670154690499e-34
1.8259310974332e-33
8.7355648249681e-33
3.902530162105e-32
1.627660957414e-31
6.3394387188459e-31
2.3069405675036e-30
7.849286442487e-30
2.4991991645777e-29
7.453712667536e-29
2.0846443231891e-28
5.474418996621e-28
1.3518445569374e-27
3.1441062206982e-27
6.898803408415e-27
1.4303560683815e-26
2.8059884867502e-26
5.2131940752029e-26
9.1769375968605e-26
1.5304765849111e-25
2.4161087021232e-25
3.6026990890985e-25
5.0482766984767e-25
6.56174148063e-25
7.7007816518897e-25
8.0645184049578e-25
8.0298304085389e-25
7.8294167638346e-25
7.3224944936934e-25
6.3767391563358e-25
5.0591220590054e-25
3.5674480986628e-25
2.1781607213785e-25
1.1208038514063e-25
4.7659566807439e-26
1.6812332002174e-26
5.1348564736447e-27
1.4613509607802e-27
4.1394553460767e-28
1.2013259343714e-28
3.5707451889066e-29
1.0780701354837e-29
3.2885091319123e-30
1.0115639879552e-30
3.1348225417022e-31
9.7692502470697e-32
3.0521403274274e-32
9.5242554379659e-33
2.9582329666618e-33
9.1220224932362e-34
2.7885630304784e-34
8.4467730628058e-35
2.5355335924327e-35
7.5451142476302e-36
2.2265837856356e-36
6.5181832501421e-37
1.8934320615289e-37
5.4591669328733e-38
1.5627061496651e-38
4.4424811151427e-39
1.254563650531e-39
3.5204283962432e-40
9.8184921505112e-41
2.7223570943183e-41
7.5057602674472e-42
2.0582082117521e-42
5.6142993352612e-43
1.5243035169644e-43
4.1063867267365e-44
1.1278234404953e-44
2.5088587765877e-45
1.379675073138e-45
0
0
0
0
0
5.4239952242486e-60
1.3701967125457e-57
1.4873998814242e-55
9.6640578496872e-54
4.3588808376293e-52
1.4817585141884e-50
4.0008612260853e-49
8.9010178926821e-48
1.6734263283402e-46
2.7066605681809e-45
3.8199867454659e-44
4.7562952390733e-43
5.2676397877113e-42
5.2317683555342e-41
4.6938020333444e-40
3.835393481359e-39
2.8977131124087e-38
2.0731524915724e-37
1.4337291078432e-36
9.622354524371e-36
6.2082167837242e-35
3.8098289979946e-34
2.210561565488e-33
1.2096653821457e-32
6.2336960826989e-32
3.0202220305006e-31
1.3731979891752e-30
5.8480457259536e-30
2.3288369248374e-29
8.6599521265237e-29
3.0038651652371e-28
9.7122474644237e-28
2.9259864343881e-27
8.2139516805669e-27
2.1497784067713e-26
5.2520096168747e-26
1.2002309222562e-25
2.5739712612012e-25
5.2026554035268e-25
9.9623404708771e-25
1.8164890553208e-24
3.1659779813511e-24
5.2817382457045e-24
8.4194923820838e-24
1.2764460469875e-23
1.8264262071188e-23
2.4334783933133e-23
2.9415077126209e-23
3.1552020275947e-23
3.1548562613293e-23
3.09704120859e-23
2.9258228340619e-23
2.5873458625964e-23
2.0916767014839e-23
1.509610714946e-23
9.4879883486356e-24
5.0621365596476e-24
2.2489209931559e-24
8.3266318900786e-25
2.6622829655866e-25
7.8533923422312e-26
2.2809899540409e-26
6.7492933796595e-27
2.0445931168873e-27
6.3046992507257e-28
1.9691932212991e-28
6.2152814457374e-29
1.9789641783067e-29
6.3392697147658e-30
2.0348320093172e-30
6.5152278327943e-31
2.0723849830423e-31
6.5299666641406e-32
2.0353501561445e-32
6.2741666145025e-33
1.9136303250889e-33
5.7787730986279e-34
1.7288481894248e-34
5.1266647489387e-35
1.5074479828543e-35
4.3967706227278e-36
1.2725052491086e-36
3.6556784847987e-37
1.0428043429415e-37
2.9546116184412e-38
8.3174114556999e-39
2.3269390320698e-39
6.471446236733e-40
1.7895485726415e-40
4.9213812974292e-41
1.3467887539239e-41
3.6561236705348e-42
1.0118125846049e-42
2.2652504667311e-43
1.2580011886463e-43
0
0
0
0
0
3.4578298665818e-58
6.2677789758733e-56
5.4747259993164e-54
3.0733817620275e-52
1.2521002865404e-50
3.9611145951251e-49
1.0163555766563e-47
2.1815226157122e-46
4.0020346142045e-45
6.3755108471693e-44
8.9332392396289e-43
1.110947156504e-41
1.2356663696259e-40
1.2378396224118e-39
1.1231173653897e-38
9.2634267538527e-38
6.9995568003588e-37
4.9109946325647e-36
3.2780446641101e-35
2.15106923439e-34
1.417740866468e-33
9.3440030452085e-33
6.0320176409547e-32
3.7330187164867e-31
2.1798447265088e-30
1.1887007870693e-29
6.0151425341494e-29
2.8139797186659e-28
1.2145023895357e-27
4.8309645255051e-27
1.7702118811978e-26
5.9736479679918e-26
1.8554574006593e-25
5.2997338940346e-25
1.3900259360574e-24
3.3413192389144e-24
7.3460132963357e-24
1.4754936937403e-23
2.7118705186088e-23
4.5908094540325e-23
7.2513182092539e-23
1.088292888403e-22
1.5818096399993e-22
2.2581905988327e-22
3.180163166797e-22
4.385841219055e-22
5.813050001036e-22
7.1689360227479e-22
7.9212373295969e-22
7.9998005536627e-22
7.8969551171551e-22
7.5418571025929e-22
6.7836876926258e-22
5.597057741903e-22
4.1393009306438e-22
2.6783691606211e-22
1.4799796904196e-22
6.8531734872778e-23
2.6559320931546e-23
8.8757126741354e-24
2.7153102366216e-24
8.1020417408172e-25
2.4489719122722e-25
7.5715205963906e-26
2.3869176497594e-26
7.6403891542492e-27
2.4767366997845e-27
8.111039630565e-28
2.6737491924676e-28
8.8275501466093e-29
2.9031057426814e-29
9.4652122051188e-30
3.0497705577413e-30
9.697817548453e-31
3.0434809570764e-31
9.4344722867822e-32
2.891772638986e-32
8.772092160622e-33
2.6353287724783e-33
7.8449231053452e-34
2.3150395613567e-34
6.7752211745348e-35
1.9672368869993e-35
5.6692199347073e-36
1.6221044274581e-36
4.6096430790956e-37
1.3014332359685e-37
3.6514495577042e-38
1.0183905519299e-38
2.8239275401342e-39
7.7904064502197e-40
2.1314249425506e-40
5.9444055099638e-41
1.339388617073e-41
7.5146203102043e-42
0
0
0
0
7.1673837983454e-69
1.0659537990674e-56
1.6887129130549e-54
1.3211593369077e-52
6.7903811486918e-51
2.5781393069393e-49
7.7116877033155e-48
1.8931303974855e-46
3.9258033085481e-45
7.016069456453e-44
1.0970950103967e-42
1.5192320858951e-41
1.8777865180771e-40
2.0875544448212e-39
2.0992469180601e-38
1.9173780147236e-37
1.5995173061251e-36
1.2209436381063e-35
8.5359315946514e-35
5.5606918390365e-34
3.5421727197258e-33
2.3446346096872e-32
1.6633431311575e-31
1.2365775407999e-30
9.1443358485487e-30
6.4273204280828e-29
4.1787630559534e-28
2.4791392868616e-27
1.3338006279879e-26
6.4912401276591e-26
2.8556469264072e-25
1.1359234198724e-24
4.0869849867815e-24
1.3310803159994e-23
3.9243115436496e-23
1.0462727340083e-22
2.5203486785885e-22
5.4800879627376e-22
1.0716135023878e-21
1.8686004515141e-21
2.8758379332685e-21
3.906526710973e-21
4.7991914138121e-21
5.5712204054454e-21
6.3700010512198e-21
7.3773236799144e-21
8.7651249964731e-21
1.0614419454952e-20
1.2715096517411e-20
1.4295137126677e-20
1.4674546470037e-20
1.4554635564178e-20
1.4047525038888e-20
1.2861166711597e-20
1.0842749381176e-20
8.2270404097786e-21
5.4836691063876e-21
3.1367367753554e-21
1.5116173611841e-21
6.1199634767156e-22
2.1352586197606e-22
6.7786640226867e-23
2.0818288698285e-23
6.4412396482465e-24
2.0356974619698e-24
6.5689328243004e-25
2.1572214744796e-25
7.1899055045399e-26
2.4245705738944e-26
8.2343821966285e-27
2.7995361929959e-27
9.4670555103006e-28
3.1670643032152e-28
1.0444438061005e-28
3.3907834069824e-29
1.0840149024639e-29
3.4168174530251e-30
1.0633639535925e-30
3.2715341858284e-31
9.9593849542223e-32
3.0020770415966e-32
8.9651258667195e-33
2.6536642212661e-33
7.7891006466805e-34
2.2681233332378e-34
6.5547812531587e-35
1.8807139729595e-35
5.3592985222304e-36
1.5172214053683e-36
4.2684808972647e-37
1.1936433441232e-37
3.3200136712129e-38
9.1558786369917e-39
2.5737422334876e-39
5.8364148217194e-40
3.309535622672e-40
0
0
0
0
8.4387887069844e-69
2.1215444091698e-55
3.1342972925966e-53
2.3029728324697e-51
1.1201008296475e-49
4.0530646484533e-48
1.1629786288278e-46
2.7550969784571e-45
5.5430711482028e-44
9.6608675358504e-43
1.4808096282272e-41
2.0202987750509e-40
2.4720880180878e-39
2.734557581472e-38
2.7482735587195e-37
2.5156983075876e-36
2.1136873429137e-35
1.6315532128016e-34
1.1506889338536e-33
7.4330306453558e-33
4.5822822864519e-32
2.9678694316728e-31
2.1827879794121e-30
1.7857101297912e-29
1.4978249173809e-28
1.1944375609446e-27
8.659027052401e-27
5.6021022740026e-26
3.2236519167714e-25
1.6544361807158e-24
7.6023573060903e-24
3.1383215262684e-23
1.166603551767e-22
3.911542067694e-22
1.1839399713402e-21
3.23448403384e-21
7.9705747970563e-21
1.7688444699532e-20
3.5221795873426e-20
6.2437423584359e-20
9.7211038880599e-20
1.3075829963289e-19
1.5122435304648e-19
1.5617501767952e-19
1.5625291220827e-19
1.5729529886463e-19
1.6129474802675e-19
1.7051344657461e-19
1.857749688742e-19
2.0238807385096e-19
2.0932980892366e-19
2.0840395153393e-19
2.0293528317035e-19
1.8868735086002e-19
1.623435283449e-19
1.2623082608254e-19
8.6547904365552e-20
5.1153797578911e-20
2.5602917424021e-20
1.0812065335947e-20
3.9376097839451e-21
1.2990604069426e-21
4.1162067893131e-22
1.3066677020444e-22
4.2290241003016e-23
1.3988252025648e-23
4.718724984083e-24
1.6189672322787e-24
5.6283886284977e-25
1.9717523794593e-25
6.911392313978e-26
2.4061724986599e-26
8.2692347688833e-27
2.7943598094698e-27
9.271505688627e-28
3.0219956733876e-28
9.691869004368e-29
3.0640571939312e-29
9.5644571308978e-30
2.9513657627659e-30
9.0108185821713e-31
2.7237849719505e-31
8.1562750715372e-32
2.4207076748113e-32
7.1241145873532e-33
2.0799371772823e-33
6.0266781197048e-34
1.733711394955e-34
4.9533009028357e-35
1.4059516603674e-35
3.9655788935062e-36
1.1122460812986e-36
3.092272314287e-37
8.7627733121852e-38
1.9998868469019e-38
1.1466820936265e-38
0
0
0
0
1.0900377190421e-104
3.0708017059741e-54
4.3572560187373e-52
3.0816724547722e-50
1.4465857834977e-48
5.0660782456318e-47
1.4107796814513e-45
3.2523431898338e-44
6.3838970786771e-43
1.0884124848015e-41
1.6367683093466e-40
2.1977595578021e-39
2.6560323078793e-38
2.912952162485e-37
2.9143851774366e-36
2.6642298830836e-35
2.2426901487119e-34
1.7426972114631e-33
1.2443697113708e-32
8.0946901906716e-32
4.8732654877245e-31
3.0092860276046e-30
2.1795939796193e-29
1.863170298467e-28
1.6746301991868e-27
1.4342850223939e-26
1.1154017034476e-25
7.7247164756168e-25
4.7275278457241e-24
2.5555729868849e-23
1.2268112399836e-22
5.2683632005131e-22
2.0358270188147e-21
7.1027819666556e-21
2.2397342697927e-20
6.3789420303582e-20
1.6380469642281e-19
3.7827258471238e-19
7.823414676117e-19
1.4387764846148e-18
2.3205169727111e-18
3.1866645309742e-18
3.6206343051647e-18
3.6390572201222e-18
3.5510443367444e-18
3.3137445975287e-18
2.9193957750011e-18
2.5384559207191e-18
2.4392378247889e-18
2.4610163656769e-18
2.4775685991016e-18
2.4643042334535e-18
2.3996366947346e-18
2.2349076768363e-18
1.9441096533595e-18
1.5409983354396e-18
1.0855486758458e-18
6.6366870759427e-19
3.4564270294812e-19
1.5251874871557e-19
5.8059396007316e-20
1.9930132498033e-20
6.5239251047518e-21
2.1276241105763e-21
7.060773332467e-22
2.396866681523e-22
8.3152935317772e-23
2.9401905941898e-23
1.0549875184597e-23
3.8166586671056e-24
1.3809412219666e-24
4.9560046982145e-25
1.752145702906e-25
6.0756333367214e-26
2.0629756578017e-26
6.8635612177727e-27
2.2417730608516e-27
7.2046273889407e-28
2.2829260005291e-28
7.1434516933169e-29
2.2097595764518e-29
6.7632810122805e-30
2.0494063528194e-30
6.151821972097e-31
1.8302538523212e-31
5.399602187598e-32
1.580337344254e-32
4.5904314428296e-33
1.3238370256126e-33
3.7917810389251e-34
1.0789272579548e-34
3.0520367759178e-35
8.5556502749069e-36
2.4445057756154e-36
5.6148155479451e-37
3.256830088029e-37
0
0
0
0
6.4344469868349e-87
3.452290923219e-53
4.7796429721722e-51
3.2999011120768e-49
1.5133828420326e-47
5.1831293709904e-46
1.4130180849742e-44
3.1923947100961e-43
6.1471230564475e-42
1.0293078834556e-40
1.5222464973484e-39
2.0132278216976e-38
2.4015434567956e-37
2.6060394231417e-36
2.5877512234054e-35
2.3557721289489e-34
1.9789771910982e-33
1.5396397778846e-32
1.1085531952208e-31
7.3177340574273e-31
4.3904311796967e-30
2.5646202816176e-29
1.7330416809763e-28
1.4611117466703e-27
1.3543435269047e-26
1.2103227229216e-25
9.8640395301505e-25
7.1770320196074e-24
4.642829658432e-23
2.6779209242428e-22
1.3749507326176e-21
6.2755758120838e-21
2.554308903622e-20
9.3221181354924e-20
3.0640816885622e-19
9.0888383724578e-19
2.4326607147059e-18
5.8648578450725e-18
1.2690197723136e-17
2.4486325403487e-17
4.1613390316433e-17
6.0453136239545e-17
7.1742976522508e-17
7.2731785146831e-17
7.0901250365175e-17
6.5101290020388e-17
5.4403882564617e-17
4.1561367118444e-17
3.1617050091808e-17
2.6784024869939e-17
2.5091619010006e-17
2.422628610491e-17
2.3232686960022e-17
2.1612929883601e-17
1.9012931766263e-17
1.538779979453e-17
1.1154266025653e-17
7.0647807387657e-18
3.8339800626811e-18
1.7694720359346e-18
7.0440790404799e-19
2.5167885759419e-19
8.5159664317896e-20
2.855903791209e-20
9.7290505188623e-21
3.3933512475488e-21
1.21201548992e-21
4.4211337836937e-22
1.6389370389138e-22
6.1294045965876e-23
2.2919317889126e-23
8.4909338149926e-24
3.0930391709697e-24
1.1024429321792e-24
3.8373221714704e-25
1.3051289311874e-25
4.3467041582847e-26
1.4213963426795e-26
4.5751555928953e-27
1.4524191573572e-27
4.5540269986036e-28
1.4117558316914e-28
4.3302958335724e-29
1.3150615417286e-29
3.9563318141656e-30
1.1797404021043e-30
3.488503981382e-31
1.023399454681e-31
2.9797538673011e-32
8.6140579855296e-33
2.4731486179678e-33
7.0571253496148e-34
1.9950281000898e-34
5.7482858817312e-35
1.3287965717308e-35
7.8010356188675e-36
0
0
0
0
0
3.1435346725984e-52
4.2863275895015e-50
2.9139264438912e-48
1.3159067601141e-46
4.4385501463719e-45
1.1920153177e-43
2.6537634760415e-42
5.0365642317869e-41
8.3151039125568e-40
1.2129451696434e-38
1.5830197860184e-37
1.8653435547539e-36
2.001804299727e-35
1.9693751271595e-34
1.781354515476e-33
1.4894019173822e-32
1.1556766150937e-31
8.3379509896954e-31
5.5695817722824e-30
3.3887901317089e-29
1.9132574611632e-28
1.1660764349561e-27
9.0080199578233e-27
8.2451837564289e-26
7.5646918203802e-25
6.3820381727249e-24
4.8387473644121e-23
3.2961832498518e-22
2.0095303393604e-21
1.1011705464841e-20
5.4341560569008e-20
2.4019036568188e-19
9.4727572638162e-19
3.3421348010028e-18
1.059901325851e-17
3.0265326563078e-17
7.7616411335643e-17
1.7774471363314e-16
3.6047833815787e-16
6.3816537774926e-16
9.5555582847268e-16
1.1526059955379e-15
1.170654149247e-15
1.1380520640878e-15
1.0337890973785e-15
8.3915777831648e-16
5.9720912961143e-16
3.9114377846474e-16
2.7186762764326e-16
2.2262805931536e-16
2.0283720823998e-16
1.8988666454181e-16
1.7544020930978e-16
1.554396044054e-16
1.2828002818724e-16
9.5774602289835e-17
6.2970989613638e-17
3.5678255865698e-17
1.7241319994181e-17
7.1790587299478e-18
2.6693446735948e-18
9.3371494685695e-19
3.2215684674516e-19
1.1274821396804e-19
4.044158417159e-20
1.4885019714432e-20
5.6064813159497e-21
2.1491592351693e-21
8.3171788665116e-22
3.2178560768194e-22
1.2324137859342e-22
4.6339298981827e-23
1.7011342105176e-23
6.0823644195073e-24
2.1188184338736e-24
7.2070244122781e-25
2.400899746655e-25
7.856939616131e-26
2.5320781126281e-26
8.0509465824325e-27
2.5288664021662e-27
7.8544681070099e-28
2.4139789714788e-28
7.3459177924306e-29
2.2146310467088e-29
6.6180259465537e-30
1.9612732206319e-30
5.7666245191333e-31
1.6828896814346e-31
4.8761159494288e-32
1.4038138496804e-32
4.0027720584457e-33
1.16326664459e-33
2.7062454339223e-34
1.6088387876573e-34
0
0
0
4.2022853847556e-80
1.065210891226e-65
2.3862784536528e-51
3.2236259247943e-49
2.1701127870365e-47
9.7011466232799e-46
3.2384504613377e-44
8.6064654847418e-43
1.8959090807595e-41
3.5600018872921e-40
5.8144805566086e-39
8.3902662079443e-38
1.0830735451703e-36
1.262619009658e-35
1.3408536272271e-34
1.3062783032261e-33
1.17228894972e-32
9.7376316570258e-32
7.517148038271e-31
5.4095587962689e-30
3.6286989688607e-29
2.2454413255938e-28
1.2659974508637e-27
7.0693218539413e-27
4.6920646792823e-26
3.9350135292087e-25
3.5912004442167e-24
3.1117729049353e-23
2.4619598567146e-22
1.7568421912083e-21
1.1277494741822e-20
6.5390611671298e-20
3.4440588549301e-19
1.6581427316333e-18
7.3031162988868e-18
2.913007476599e-17
1.0349971632419e-16
3.2563977303578e-16
9.0603839434022e-16
2.2191610465609e-15
4.74275237263e-15
8.6972168651673e-15
1.3195961578295e-14
1.5725219613526e-14
1.5824125723629e-14
1.5207865970269e-14
1.3449936083851e-14
1.0396714334527e-14
6.8603172097944e-15
3.9917079544696e-15
2.3617202552379e-15
1.6876122262506e-15
1.4386374708093e-15
1.3135980422329e-15
1.2063617776863e-15
1.0764642007611e-15
9.0535722690769e-16
6.9590222977104e-16
4.7486040027275e-16
2.8087026474958e-16
1.4216119901861e-16
6.1984969784958e-17
2.4033534528828e-17
8.7104025592595e-18
3.0973245120571e-18
1.1147445186073e-18
4.1143789578767e-19
1.561319146293e-19
6.0760412619268e-20
2.4103981979987e-20
9.6620463483578e-21
3.8725706525335e-21
1.5356954678488e-21
5.9717801515399e-22
2.2630283610097e-22
8.3315249420589e-23
2.9794612979354e-23
1.0370837333521e-23
3.5250335943803e-24
1.174115422778e-24
3.844161976245e-25
1.2401369140463e-25
3.948588459938e-26
1.2422764222965e-26
3.8651188935942e-27
1.1900690413371e-27
3.6283658444111e-28
1.0960374967275e-28
3.2820325645592e-29
9.7470022047141e-30
2.8721094356482e-30
8.399989811711e-31
2.4403418347462e-31
7.0194771138142e-32
2.0579291752293e-32
4.8180921993435e-33
2.9019803098158e-33
0
0
0
1.7338282247124e-77
3.1544687199804e-64
1.541929572485e-50
2.0720170096539e-48
1.3866939569238e-46
6.1595342846617e-45
2.0422327463129e-43
5.3888726485737e-42
1.1783584944527e-40
2.1956641842239e-39
3.5576478073321e-38
5.0912929823711e-37
6.5153399832131e-36
7.5281895642163e-35
7.9215228040765e-34
7.645804808725e-33
6.8038479750003e-32
5.6085435261764e-31
4.3004432843831e-30
3.0781281365682e-29
2.0607136358214e-28
1.2864667908237e-27
7.3661665856348e-27
3.9605759642783e-26
2.2626189735671e-25
1.5928284605958e-24
1.3398085907008e-23
1.1575427602524e-22
9.499054453171e-22
7.1102211316417e-21
4.8218794461261e-20
2.9460419703635e-19
1.641902316549e-18
8.5185506986316e-18
4.1166858385754e-17
1.824678576955e-16
7.4444150184091e-16
2.6973146889981e-15
8.354999680297e-15
2.212373244201e-14
5.0089221941111e-14
9.5686395286857e-14
1.4760372574946e-13
1.7455740914222e-13
1.7420307026277e-13
1.6505760035917e-13
1.4124218923921e-13
1.0275368545899e-13
6.2084701086628e-14
3.2133551952995e-14
1.6556781200553e-14
1.0548758488954e-14
8.5143269229491e-15
7.6471734487727e-15
7.0200034176249e-15
6.3240111662253e-15
5.4182563627581e-15
4.2787686629528e-15
3.0228904766496e-15
1.8641464573987e-15
9.8925123863845e-16
4.5336512282663e-16
1.8432860677288e-16
6.9596511571222e-17
2.560110977993e-17
9.4934817092363e-18
3.6085910937819e-18
1.4126098399107e-18
5.6830723717344e-19
2.3347974926375e-19
9.7029389589573e-20
4.0337222622302e-20
1.6589560712495e-20
6.6856377219129e-21
2.6218213994759e-21
9.9658349233382e-22
3.668425127691e-22
1.3097853991155e-22
4.5509653093121e-23
1.5449539502354e-23
5.1437285148162e-24
1.6846741889477e-24
5.4397297736411e-25
1.7341959847386e-25
5.4640295354945e-26
1.7027541627641e-26
5.2516887984965e-27
1.6040438879772e-27
4.8545421202938e-28
1.456530095218e-28
4.3344746271772e-29
1.2798483628866e-29
3.7527233160322e-30
1.0891232045188e-30
3.221730225416e-31
7.5906163656733e-32
4.6344614260974e-32
0
0
0
0
7.1732308431062e-63
8.6125517902857e-50
1.1546147889889e-47
7.7042766271963e-46
3.4100191965949e-44
1.1260173553613e-42
2.9578710198857e-41
6.43622631162e-40
1.1929337851055e-38
1.9219672016547e-37
2.733771308127e-36
3.4753974773837e-35
3.9875714395915e-34
4.1642254896878e-33
3.9866591604025e-32
3.5188718387282e-31
2.8776394514951e-30
2.1896141189317e-29
1.5561918343334e-28
1.0360074206261e-27
6.4682221748405e-27
3.7501195853761e-26
2.0162854273772e-25
1.0570985286774e-24
6.135367306341e-24
4.3006772523157e-23
3.4131733685599e-22
2.7835400293308e-21
2.1518000722918e-20
1.546585035466e-19
1.0062937792123e-18
5.964641200455e-18
3.2985096776408e-17
1.7073608566265e-16
8.3025670467306e-16
3.6427286833941e-15
1.4662463300039e-14
5.5944015787759e-14
1.7687709023213e-13
4.3909721872177e-13
8.5986902969246e-13
1.2884616673732e-12
1.4499256791804e-12
1.4286840123832e-12
1.3215806495934e-12
1.0847855796321e-12
7.4365609795905e-13
4.210497417008e-13
2.044043671856e-13
9.7849999405555e-14
5.7013634446485e-14
4.3271788894272e-14
3.8009335395077e-14
3.4786770947648e-14
3.1557796440383e-14
2.746075703481e-14
2.2216083102241e-14
1.6220051325758e-14
1.0426649362317e-14
5.8123602257892e-15
2.8113081429289e-15
1.2054918371898e-15
4.7709740329585e-16
1.8248966260396e-16
6.9969007753099e-17
2.7449116308494e-17
1.1099241401188e-17
4.6207794018959e-18
1.9677253787188e-18
8.4861435850962e-19
3.6636021307977e-19
1.5651443088079e-19