/*--------------------------------*- C++ -*----------------------------------*\
  =========                 |
  \\      /  F ield         | OpenFOAM: The Open Source CFD Toolbox
   \\    /   O peration     | Website:  https://openfoam.org
    \\  /    A nd           | Version:  7
     \\/     M anipulation  |
\*---------------------------------------------------------------------------*/
FoamFile
{
    version     2.0;
    format      ascii;
    class       surfaceScalarField;
    location    "2.8";
    object      alphaPhi0.water;
}
// * * * * * * * * * * * * * * * * * * * * * * * * * * * * * * * * * * * * * //

dimensions      [0 3 -1 0 0 0 0];

internalField   nonuniform List<scalar> 
11840
(
0
0
0
0
0
0
0
0
0
0
0
0
0
0
0
0
0
0
0
0
0
0
0
0
0
0
0
0
0
0
0
0
0
0
0
0
0
0
0
0
0
0
0
0
0
0
0
0
0
0
0
0
0
0
0
0
0
0
0
0
0
0
0
0
0
0
0
0
0
0
0
0
0
0
0
0
0
0
0
0
0
0
0
0
0
0
0
0
0
0
0
0
0
0
0
0
0
0
0
0
0
0
0
0
0
0
0
0
0
0
0
0
0
0
0
0
0
0
0
0
0
0
0
0
0
0
0
0
0
0
0
0
0
0
0
0
0
0
0
0
0
0
0
0
0
0
0
0
0
0
0
0
0
0
0
0
0
0
0
0
0
0
0
0
0
0
0
0
0
0
0
0
0
0
0
0
0
0
0
0
0
0
0
0
0
0
0
0
0
0
0
0
0
0
0
0
0
0
0
0
0
0
0
0
0
0
0
0
0
0
0
0
0
0
0
0
0
0
0
0
0
0
0
0
0
0
0
0
0
0
0
0
0
0
0
0
0
6.1589040895732e-209
-4.3837661039808e-231
1.0077137993379e-208
5.0385689966895e-209
1.6477483360291e-208
8.2387416751532e-209
6.0051387241745e-209
1.2800427280477e-208
1.0918434043954e-209
4.9132953197792e-209
1.4195910028756e-189
7.097955014378e-190
8.6306554646832e-189
0
1.5692100844878e-189
7.0614453801954e-189
2.8531092445233e-190
1.2838991600355e-189
5.1874713536787e-191
2.3343621091554e-190
2.7426642067662e-190
0
1.1907300470974e-189
-6.8484346510341e-207
2.1649637219952e-190
9.7423367489784e-190
2.7702613161059e-190
1.3851306580529e-190
6.0389675153782e-190
0
1.461838449987e-189
0
3.1735657170791e-189
0
5.7701194855982e-190
2.5965537685192e-189
1.0491126337451e-190
4.7210068518531e-190
2.0069290865129e-190
0
3.3005471957039e-190
0
6.0009949012798e-191
2.700447705576e-190
8.5737193807522e-191
0
1.5588580692277e-191
7.0148613115246e-191
1.2212407265423e-191
6.1062036327113e-192
2.2204376846223e-192
9.9919695808003e-192
2.1909981614276e-192
5.3336458810053e-193
2.5611789128866e-192
0
4.6566889325211e-193
2.0955100196345e-192
4.9598472747939e-193
0
9.0179041359888e-194
4.058056861195e-193
8.87843765694e-194
0
8.1657390448041e-194
0
1.484679826328e-194
6.6810592184761e-194
1.285777193054e-194
0
2.3377767146436e-195
1.0519995215896e-194
4.250503117534e-196
1.9127264028902e-195
3.4877226164309e-196
0
6.3413138480594e-197
2.8535912316251e-196
4.9548884168834e-197
0
9.0088880308147e-198
4.0539996138097e-197
6.7312729665694e-198
0
1.2238678133014e-198
5.5074051527324e-198
6.6701343780453e-199
3.3350671890226e-199
1.2127517092806e-199
5.4573826712271e-199
6.4901689147331e-200
3.2450844573665e-200
3.4122913285998e-200
1.7061456642999e-200
6.2041781477468e-201
2.7918764684968e-200
3.2066365840903e-201
1.6033182920452e-201
2.0829323301655e-201
0
1.0366587021704e-201
5.1832935108522e-202
6.4047937516269e-202
0
1.1651956962808e-202
5.2395806805439e-202
7.0088426702302e-203
0
1.2842346767757e-203
5.7287235086781e-203
6.0924030831429e-204
3.0462015415714e-204
1.1805559118125e-204
4.9353271904367e-204
7.1786351040647e-205
0
4.330980176421e-205
0
2.0594193940004e-205
1.0502525338481e-205
1.2189300909034e-205
0
5.699899171471e-206
2.9068064353262e-206
3.2605372819436e-206
0
1.487928794042e-206
7.4396439702101e-207
8.1704260192195e-207
0
4.3790822371595e-207
0
1.9044157106232e-207
9.5230433035605e-208
9.785663762194e-208
0
4.1246109733806e-208
2.0623054866903e-208
2.0320828653707e-208
0
8.3024699601624e-209
4.1512371970797e-209
3.3480842096761e-209
1.674042104838e-209
1.5578499936681e-209
0
6.1049462574983e-210
3.0524731287492e-210
2.7438492029469e-210
0
1.0487052135187e-210
5.2435260704749e-211
4.5668557619138e-211
0
1.9540622503787e-211
0
7.1925918069971e-212
3.5962959034986e-212
2.9855298950027e-212
0
8.3204790681069e-213
0
0
0
0
0
0
0
0
0
0
0
0
0
0
0
0
0
0
0
0
0
0
0
0
0
0
0
0
0
0
0
0
0
0
0
0
0
0
1.1879586537544e-152
5.9397932687718e-153
6.5188706455674e-149
3.2594353227837e-149
5.9262460423333e-149
5.9262460439484e-150
0
3.9139637779695e-140
3.3337606851485e-123
0
1.8006143602108e-123
1.8720110012135e-122
1.1037858110056e-122
0
1.1250883979848e-122
5.3839204901568e-123
2.4861554804586e-124
1.2054792594722e-122
2.7664704676259e-124
1.9608276784244e-124
6.0015043913025e-124
0
5.5362624922393e-124
2.7681304900147e-124
2.3882041945454e-123
1.1941012130215e-123
9.867118592912e-125
2.443254408679e-123
1.7065482982517e-124
7.7562247419689e-125
3.1432536386666e-124
1.1014913570515e-124
2.0922171855916e-123
0
3.5668047118641e-122
0
8.2758891509071e-123
5.4184342941588e-122
1.1284943514037e-122
0
1.9901838531739e-122
0
1.8813732925615e-122
1.089422799723e-123
5.1009510473587e-122
0
5.1009734445387e-122
0
1.1385478893879e-123
4.9871186555999e-122
1.1820229539657e-123
0
1.1820229539657e-123
0
8.9663804561892e-124
0
6.0602268575719e-124
0
4.027080108069e-124
0
2.4323321886172e-124
0
2.532729867612e-124
0
6.6180889202995e-125
0
2.9703365191162e-125
0
1.9616890062524e-125
0
1.16191508247e-125
0
1.5760335535982e-126
1.0043117271102e-125
9.8223566836913e-127
0
3.0579312692224e-128
9.5165635567691e-127
3.0569497270618e-128
0
7.5168456411166e-130
2.9817812706506e-128
7.5135999119986e-130
0
4.6476894785105e-130
0
1.7111542722852e-131
4.476574051282e-130
1.5705616209304e-131
0
2.8555665835098e-132
1.2850049625794e-131
3.8443141112928e-133
2.4711351723805e-132
2.3591636183253e-133
0
7.3446947015669e-135
2.2857166713096e-133
7.3422397595514e-135
0
1.390111697886e-136
7.2032285897628e-135
9.7361153305906e-137
0
7.6893298044839e-137
0
1.163327128906e-137
0
1.1629142134152e-137
0
2.1143894789366e-138
9.5147526552149e-138
7.3829857170039e-140
2.0405596217666e-138
2.0033555737548e-140
0
2.0026313276962e-140
0
7.8785513825681e-142
1.9238458138705e-140
7.1667255858871e-142
0
9.4790124991709e-143
6.2188243359701e-142
5.6011034582357e-143
0
1.3322667523321e-144
5.4678767830025e-143
1.3316257492871e-144
0
7.2359439096115e-145
0
2.9896734083284e-145
0
1.7173510340666e-145
0
4.1342869950274e-147
1.6760081641163e-145
4.1321269254483e-147
0
2.2993904179648e-147
0
3.0024965882888e-148
1.999140759136e-147
1.7237961501558e-148
0
4.9812504595186e-150
1.6739836455606e-148
3.246927368152e-150
0
1.4782046592363e-150
0
5.6823641337688e-151
0
3.2258297398349e-151
0
9.4912624019097e-153
3.1309171158158e-151
7.199284138687e-153
0
0
0
0
0
0
0
0
0
0
0
0
0
0
0
0
0
0
0
0
0
0
0
0
0
0
0
0
0
0
0
0
0
0
0
0
-1.2323132151788e-90
-6.161566075894e-91
-2.0417795519735e-89
-1.0208897759867e-89
-2.3431101421078e-88
-1.1715550710539e-88
-1.8674968973575e-87
-9.3374844867876e-88
-1.0449200014523e-86
-5.2246000072614e-87
-4.7251452766411e-86
-2.3625726383205e-86
1.0842105149788e-72
0
5.2668097581836e-74
1.0286184218942e-72
3.8037328788453e-74
1.4222090248365e-74
6.7412597985202e-75
3.1273608169045e-74
1.0904989210512e-75
5.6204504301412e-75
1.0266975900874e-76
1.0060218075741e-75
1.4005092992854e-76
9.1301311310693e-77
2.458358598896e-77
1.1286211202359e-76
4.4697449673825e-78
2.0113841021578e-77
8.126809652302e-79
3.6570640021344e-78
7.3880087755393e-80
7.3880087749268e-79
7.1126988022008e-76
9.0899938007332e-76
2.5490798550291e-64
1.4585192057487e-64
3.1824919514445e-63
2.3336307291979e-63
4.5741993024319e-64
3.1327448269933e-63
6.8958280265587e-65
3.1601249457889e-64
2.414807603739e-65
3.6462851179789e-65
6.0119355768643e-66
2.5923493839259e-65
3.4105700937195e-65
3.3424398465074e-65
1.4891134508611e-64
1.1166787668876e-64
5.6606945209744e-64
3.94540772916e-64
3.3977013593025e-63
2.0133452291334e-63
1.6827824679188e-62
8.5753797975254e-63
7.0369803263615e-62
3.7145517667402e-62
2.2870711262968e-61
1.6567664451066e-61
8.2283307531985e-61
5.2988987019795e-61
2.7051289153465e-60
1.7834651304628e-60
8.0223427368161e-60
5.892570042535e-60
2.6186971034321e-59
1.8362210235497e-59
5.2405020639799e-59
4.1310708380481e-59
1.3469115277193e-58
9.6226096303112e-59
2.8061176843872e-58
2.2758705225853e-58
5.5044133686468e-58
4.4299347379912e-58
1.3142251083657e-57
9.6785607363658e-58
2.508270730396e-57
2.0354019167546e-57
5.451865064397e-57
4.0740995840289e-57
9.696929929198e-57
8.3427780350766e-57
1.4500649011235e-56
1.2779153866219e-56
2.0187491197768e-56
1.890218229231e-56
2.1506409486008e-56
2.1789744857385e-56
2.2800806589034e-56
2.2800467539293e-56
2.1991611421926e-56
2.3724042595172e-56
2.0636339351448e-56
2.2444142842774e-56
1.9760244240553e-56
2.0330250367131e-56
1.612176570262e-56
1.8620792883788e-56
1.2335006876214e-56
1.4258570486118e-56
7.2941437097781e-57
1.0160453878808e-56
3.0389967501922e-57
5.209164568407e-57
8.4308565075763e-58
1.8271556023025e-57
1.2896470063838e-58
4.9797933127895e-58
2.7807623785039e-59
7.4481720973522e-59
5.1190932888966e-60
2.1664056991403e-59
8.3167333608527e-61
4.1579027388928e-60
2.1634700931848e-61
5.4862324542843e-61
4.0666234746089e-62
1.6961612048974e-61
7.809490698656e-63
3.2141643975783e-62
1.4955725828632e-63
6.1380207103845e-63
2.7867972150459e-64
1.1807865038426e-63
4.5576974069839e-65
2.2637363146558e-64
1.1755355107387e-65
2.9979806977037e-65
2.7703481301681e-66
7.5985455130119e-66
4.6405037655907e-67
2.2154909938267e-66
1.1505133945911e-67
3.064180954269e-67
2.1981748600818e-68
8.9675413738315e-68
3.5804204125001e-69
1.7868424585283e-68
9.2198015844011e-70
2.3619007333004e-69
2.1732554676204e-70
5.9677101030949e-70
3.6444234259567e-71
1.7413195690236e-70
6.7135480371787e-72
2.8734065413981e-71
1.7147867030312e-72
4.4425805198636e-72
4.3655651085215e-73
1.0930899583355e-72
1.0819654021128e-73
2.7291853621565e-73
2.5882779180999e-74
6.6558055051625e-74
6.1486410855547e-75
1.5893885861478e-74
1.4478050911623e-75
3.8275553012233e-75
4.0812827034654e-76
8.6301013093341e-76
3.2377333263383e-76
0
0
0
0
0
0
0
0
0
0
0
0
0
0
0
0
0
0
5.9735034832743e-71
3.0064854541705e-71
5.4252058006095e-69
2.7891491562786e-69
1.6052345301336e-67
8.3433955852025e-68
3.5620229243294e-66
1.8746327885574e-66
5.9591752749254e-65
3.2189974658126e-65
7.7889169345212e-64
4.1761506945852e-64
1.7272170629135e-62
9.1917095778955e-63
2.1234942273074e-61
1.1670584511333e-61
2.1957699600056e-60
1.2165994868219e-60
1.7625721536707e-59
1.0022166104995e-59
1.4603732831084e-58
7.9878624106626e-59
1.9794436593422e-57
1.252369378639e-57
5.0233393659222e-57
3.3056657155998e-57
3.7049052462854e-56
2.2953268255596e-56
6.7049488203682e-56
6.9739191501734e-56
3.33587631314e-56
4.7308457392989e-56
6.7923075689055e-57
2.6566455633397e-56
1.2399503711977e-57
5.55235719774e-57
2.2546645050446e-58
1.0144839206933e-57
4.0993893347623e-59
1.8447255715684e-58
7.6941817028807e-60
3.3299711644743e-59
1.2043919469581e-54
0
2.190327280037e-55
9.8535921895441e-55
3.987725256815e-56
1.7915547543555e-55
4.6069270224687e-54
0
2.9235510088872e-54
1.6833760135815e-54
9.8687383974504e-49
3.1474477226046e-49
9.3078003277795e-48
7.9917803043525e-48
5.3239246268636e-49
8.7581154020301e-48
8.4754156123209e-49
0
5.0275266354024e-50
7.9726635618069e-49
3.1839817747247e-50
1.8957616806865e-50
2.1520935805385e-50
9.6871244573733e-50
3.9137898330449e-51
1.760714597234e-50
2.5140455966621e-52
3.6623852733797e-51
5.0802501463884e-52
0
4.5700424802757e-53
2.0565185500337e-52
3.8910387521854e-53
8.7548374597032e-53
7.0746192856837e-54
3.183576889709e-53
1.0880000865707e-52
0
4.017075366828e-50
0
2.4137499384145e-50
1.5988163450436e-50
7.2874047561889e-51
0
1.3294246820405e-51
5.9579801468378e-51
1.0952032715307e-48
0
1.0952888054835e-48
0
1.9914518278255e-49
8.9614362391567e-49
2.3481112267129e-49
0
4.2693026248843e-50
1.9211810195252e-49
4.9637151936054e-50
0
3.1215366341115e-51
4.6515637125468e-50
3.1215666573813e-51
0
3.5845584639722e-51
0
6.5175939742477e-52
2.932845575417e-51
7.3190443848748e-52
0
1.3309649573333e-52
5.9885619160802e-52
2.4220832820827e-53
1.0892066140354e-52
2.70864538362e-53
0
4.9422381159775e-54
2.2178856977909e-53
5.48430526385e-54
0
8.1223055550978e-55
4.6859600642805e-54
8.1866974583892e-55
0
6.9537220507605e-55
0
6.956468744646e-55
0
6.4715039565375e-55
0
1.1074324408787e-55
5.364238347297e-55
2.0142977843826e-56
9.0603492969398e-56
9.8979378554991e-57
0
9.8973045592863e-57
0
3.2733351265029e-58
9.5699962277941e-57
3.2731274561122e-58
0
2.8356946640051e-59
2.9895671849695e-58
2.8357123153498e-59
0
1.6580581568762e-59
0
1.2547255304333e-59
0
1.254725701677e-59
0
3.5216529437717e-60
0
3.5061129135994e-60
0
7.0785582036528e-62
3.4353273455682e-60
5.7706417995726e-62
0
4.6071829865253e-62
0
2.1983386316381e-63
4.3873491368825e-62
2.1650535650956e-63
0
1.1330594263745e-63
0
6.3135692792925e-64
0
4.0094725450335e-64
0
1.0554615322229e-64
1.9446922743316e-64
7.8669809227492e-65
0
1.7312291468656e-65
3.6462980143718e-65
8.4052627611817e-66
6.0771633572863e-66
4.5578725179647e-66
0
0
0
0
0
0
0
0
0
0
0
0
0
0
1.3972003706385e-61
6.9930245176931e-62
1.7480647720156e-59
8.8061707593077e-60
1.0741280478051e-57
5.4510843612693e-58
4.3242685799406e-56
2.2119006511356e-56
1.2856654597785e-54
6.6305469456689e-55
3.0175778173519e-53
1.5694813547507e-53
5.8236569476303e-52
3.0556619356758e-52
9.4767538467438e-51
5.0185491526713e-51
1.321707727619e-49
7.0678719620288e-50
1.6014713682917e-48
8.6505813955911e-49
1.7124337860438e-47
9.341276743027e-48
1.6487297754832e-46
9.073172578761e-47
1.4630438436837e-45
8.109047099096e-46
1.2229878540205e-44
6.8158749951805e-45
9.7718951838562e-44
5.4707323723292e-44
7.496822647051e-43
4.2162005840627e-43
5.5014510398545e-42
3.1107345100349e-42
3.8323285540859e-41
2.1813996480979e-41
2.5148351736299e-40
1.4429290090981e-40
1.5456658151897e-39
8.95031407263e-40
8.8664845401795e-39
5.1868839671002e-39
4.7390149709966e-38
2.8031421657734e-38
2.3591249502799e-37
1.4119507897696e-37
1.094229316791e-36
6.6306413875783e-37
4.7328193940523e-36
2.9052592822504e-36
1.9109036086737e-35
1.1888963243973e-35
7.2102882093001e-35
4.548952751019e-35
2.545372715939e-34
1.62919409553e-34
8.4161160397606e-34
5.4676804901327e-34
2.6091089903707e-33
1.7213141272557e-33
7.5916361897741e-33
5.0884450476827e-33
2.0752664579662e-32
1.4138646532639e-32
5.3350610136765e-32
3.6961946201967e-32
1.2911367329444e-31
9.1003513248969e-32
2.9446148933293e-31
2.1123362514765e-31
6.3355210541822e-31
4.6273402507192e-31
1.2874130755555e-30
9.5771810885605e-31
2.4734375567184e-30
1.8747716987892e-30
4.4969522307611e-30
3.4743630009979e-30
7.7406877348916e-30
6.099496688022e-30
1.2611850308091e-29
1.0144524018793e-29
1.9421737586202e-29
1.5969759396627e-29
2.8167058016717e-29
2.3738312944084e-29
3.8115539201456e-29
3.3126056436144e-29
4.7015469572944e-29
4.2740620884119e-29
5.1398598778392e-29
4.9536876921787e-29
5.18578985493e-29
5.1538972120738e-29
5.1470111837123e-29
5.1317413071097e-29
4.9244477047464e-29
4.9942816032935e-29
4.4197020256444e-29
4.6266999952123e-29
3.6382884897665e-29
3.9854437235867e-29
2.6782207136333e-29
3.1174414865815e-29
1.717182551221e-29
2.1618328835221e-29
9.3215539683129e-30
1.2953896919401e-29
4.1853695188607e-30
6.5458170122597e-30
1.5509076479792e-30
2.7528444659751e-30
4.9172570509306e-31
9.760589467185e-31
1.4280577066206e-31
3.0532351216672e-31
4.050071792967e-32
8.9501136081664e-32
1.1588066203444e-32
2.5762611235312e-32
3.3653243190945e-33
7.4452054759665e-33
9.8830894783943e-34
2.1717428745329e-33
2.9246334649291e-34
6.3886824519569e-34
8.7107529026141e-35
1.892854288768e-34
2.6112261004578e-35
5.645963036082e-35
7.8758033757535e-36
1.6950751659029e-35
2.3867962297144e-36
5.1183221707518e-36
7.2510646452311e-37
1.5517259107664e-36
2.2022431552928e-37
4.7120401000707e-37
6.6694760660516e-38
1.4294860569481e-37
2.0101128780214e-38
4.3223863930934e-38
6.0214253391561e-39
1.3004332879829e-38
1.7915911966141e-39
3.8886211017345e-39
5.2932565513862e-40
1.1550220347955e-39
1.5528390916271e-40
3.4069119823624e-40
4.5234150154197e-41
9.9787754905166e-41
1.3085234990759e-41
2.9023625471368e-41
3.7594721908654e-42
8.3834371330396e-42
1.072932052233e-42
2.4051676115678e-42
3.0422749735291e-43
6.8547655837793e-43
8.5722159958149e-44
1.9410876389323e-43
2.4007452386643e-44
5.4624786360804e-44
6.6841619860923e-45
1.5279712762663e-44
1.8504762291938e-45
4.249225862833e-45
5.0949602565093e-46
1.1750605473021e-45
1.3954084718884e-46
3.2318440878658e-46
3.8022548583985e-47
8.8422504411956e-47
1.0310029608666e-47
2.4069350598993e-47
2.7812142276778e-48
6.5210942124941e-48
7.4925346881203e-49
1.7557453155233e-48
1.9560899363007e-49
4.7639853975441e-49
6.2591910472133e-50
1.1571557000239e-49
5.276266679772e-50
0
0
0
0
0
0
0
0
0
0
0
0
1.2544837539577e-61
6.2619522124193e-62
2.3466051934396e-59
1.1711797958066e-59
1.9508056205517e-57
9.7681623626057e-58
1.0072282096603e-55
5.0691159585167e-56
3.7050961710541e-54
1.876334985371e-54
1.0479038485878e-52
5.3440422765407e-53
2.3926400240859e-51
1.2294370354291e-51
4.5536836224213e-50
2.3588353255477e-50
7.378075472906e-49
3.8549101786253e-49
1.0338797994498e-47
5.4512976804567e-48
1.2691828586309e-46
6.7565038392737e-47
1.3789328918195e-45
7.4144542109686e-46
1.3387784486048e-44
7.2707974195894e-45
1.1777409614602e-43
6.4547538841468e-44
9.5766051258613e-43
5.2871367674484e-43
7.3502803249714e-42
4.0798513092069e-42
5.4016537072426e-41
3.0110112740217e-41
3.8176118049065e-40
2.13724241821e-40
2.5875973757759e-39
1.4562024110873e-39
1.6722515771209e-38
9.4713529009818e-39
1.0238940149351e-37
5.8438254240726e-38
5.9065071737651e-37
3.4012674918845e-37
3.196361985314e-36
1.8592702997046e-36
1.6179120229252e-35
9.5166753104549e-36
7.6467757852239e-35
4.5527146862275e-35
3.3719653211276e-34
2.0337888065529e-34
1.3871067409501e-33
8.4818252418165e-34
5.3245767023129e-33
3.3030290766914e-33
1.9083279464469e-32
1.2016880086158e-32
6.3905206240147e-32
4.0872081093524e-32
2.0013292111239e-31
1.3007060894428e-31
5.8673791155473e-31
3.8767605443408e-31
1.6122300675843e-30
1.0833809801122e-30
4.1577786838616e-30
2.8423436481445e-30
1.0079111455931e-29
7.0112566806368e-30
2.3006177187388e-29
1.6287224387107e-29
4.9530689738217e-29
3.5691824644763e-29
1.0073913318938e-28
7.3904177341288e-29
1.9380464772384e-28
1.447943810819e-28
3.5295872837408e-28
2.6868983710214e-28
6.0869675658464e-28
4.72489570539e-28
9.9366233947127e-28
7.8730928030826e-28
1.5334037538198e-27
1.2420227104965e-27
2.2296771952933e-27
1.8508857059997e-27
3.0297931073703e-27
2.5918731012329e-27
3.7682115994072e-27
3.3651495874909e-27
4.1664726896838e-27
3.9426669255201e-27
4.2216797550065e-27
4.1374434633232e-27
4.2007020408039e-27
4.1318272090973e-27
4.0401515815517e-27
4.0360619659225e-27
3.6650195998521e-27
3.7700544100561e-27
3.0590564919244e-27
3.2860196659624e-27
2.2946994275532e-27
2.6120338372465e-27
1.5085552624315e-27
1.8503150272938e-27
8.4623412456913e-28
1.1400056104107e-27
3.9598537740628e-28
5.9687179465437e-28
1.5379738887152e-28
2.6188246142954e-28
5.1024620255914e-29
9.7120941004958e-29
1.536498995732e-29
3.1642889331046e-29
4.4724833733521e-30
9.5794101137706e-30
1.3057964684606e-30
2.8264623241866e-30
3.8648170773537e-31
8.3408760752301e-31
1.1580961854261e-31
2.4827334436533e-31
3.5035177946039e-32
7.4604819864463e-32
1.0687328075915e-32
2.2615955052e-32
3.2859897839958e-33
6.913151674788e-33
1.0174225798152e-33
2.1296373108083e-33
3.1657044536059e-34
6.6024180274873e-34
9.8680787069973e-35
2.0549968903075e-34
3.0711551959015e-35
6.4012656368185e-35
9.5140204905426e-36
1.9891844471459e-35
2.9274010615015e-36
6.1500257137521e-36
8.9358134953778e-37
1.8883195426951e-36
2.704732590743e-37
5.752243750555e-37
8.118013677304e-38
1.737794571132e-37
2.4165081697177e-38
5.2065639711945e-38
7.1357267316469e-39
1.5472413957877e-38
2.0907389814039e-39
4.5614866271337e-39
6.079609697673e-40
1.3344208091896e-39
1.7549874080023e-40
3.8745433406831e-40
5.0304631208807e-41
1.1168603375665e-40
1.4321638509839e-41
3.1969882857031e-41
4.0508088574804e-42
9.0899389800121e-42
1.138583190788e-42
2.5678547596698e-42
3.1810212072893e-43
7.2090404707902e-43
8.8358187141772e-44
2.0118022541819e-43
2.4406218935901e-44
5.5820294346631e-44
6.705242914778e-45
1.5402555870914e-44
1.8327284798451e-45
4.2273150551104e-45
4.982349008251e-46
1.1544733924401e-45
1.3524209045747e-46
3.1323979658326e-46
3.5559335108164e-47
8.5649254557114e-47
1.1476518232961e-47
2.0929071718292e-47
9.6540027315662e-48
0
0
0
0
0
0
0
0
0
0
5.7454736686056e-62
2.8558700141547e-62
1.445848668383e-59
7.1672869129675e-60
1.5617330130769e-57
7.7413969995966e-58
1.0088602791839e-55
5.0117960417011e-56
4.5216528603393e-54
2.2547760009116e-54
1.5267386335923e-52
7.6513046480866e-53
4.0931941985608e-51
2.0634248565944e-51
9.0394102576578e-50
4.5870653403045e-50
1.686372134965e-48
8.6198503642974e-49
2.7056618514919e-47
1.3939231269135e-47
3.7864902300089e-46
1.9673256544644e-46
4.6730476092774e-45
2.4499888603261e-45
5.1278261695022e-44
2.7142385900097e-44
5.0444064676397e-43
2.6968233328745e-43
4.4817487088841e-42
2.4204125477914e-42
3.6280268744013e-41
1.9779920163454e-41
2.719847247622e-40
1.4938722323813e-40
1.935261161173e-39
1.0677862592573e-39
1.332825705323e-38
7.3754344015218e-39
8.9037529501032e-38
4.9459321400719e-38
5.7092912494611e-37
3.1917861255336e-37
3.4771134678925e-36
1.9611999073437e-36
2.0002152755048e-35
1.1400011533775e-35
1.0843373318935e-34
6.2501118680668e-35
5.5313573475469e-34
3.2263408446088e-34
2.6505004571768e-33
1.5654012812295e-33
1.1906817846998e-32
7.1254566732021e-33
5.004803166672e-32
3.0370719985861e-32
1.9649540428822e-31
1.2101079926834e-31
7.1958448995784e-31
4.5011214523622e-31
2.4553597506134e-30
1.5613048731096e-30
7.8009194775422e-30
5.0467520805489e-30
2.3069202819231e-29
1.5196092749673e-29
6.3508167189619e-29
4.2624556048093e-29
1.6287073729704e-28
1.1143653512377e-28
3.8968927636682e-28
2.7186958722227e-28
8.7205351278664e-28
6.202594564134e-28
1.8319900375569e-27
1.3275664713808e-27
3.6304115507446e-27
2.6772697192853e-27
6.8235110308703e-27
5.1134845145305e-27
1.2225279377294e-26
9.2974762086138e-27
2.0946410336167e-26
1.6156403619911e-26
3.4331449044397e-26
2.687363240113e-26
5.3666961424431e-26
4.272412077988e-26
7.9526185352464e-26
6.4634102937955e-26
1.1057969381262e-25
9.2341017358292e-26
1.4142576815167e-25
1.2287578049429e-25
1.6110636386488e-25
1.4829929827543e-25
1.6512804025866e-25
1.5920251314457e-25
1.6521995966684e-25
1.6000936065179e-25
1.6000257383871e-25
1.5715369510584e-25
1.472491055015e-25
1.4847252665141e-25
1.2500038866834e-25
1.3136808411084e-25
9.5764022543223e-26
1.06402828334e-25
6.4614378772625e-26
7.7125516622169e-26
3.7437986046344e-26
4.8879939699295e-26
1.8223037323499e-26
2.6491103967242e-26
7.4000663268379e-27
1.2102531235995e-26
2.56514422925e-27
4.6855464422539e-27
8.011877600666e-28
1.5888732435104e-27
2.3968745751917e-28
4.9705876282623e-28
7.1503345647843e-29
1.5050577641376e-28
2.1588088048786e-29
4.5400471092448e-29
6.6047809410733e-30
1.3801179763813e-29
2.0439276598849e-30
4.2391875572479e-30
6.3905067627899e-31
1.3157849140543e-30
2.0171671107801e-31
4.125324043521e-31
6.4182760350354e-32
1.3052728359836e-31
2.0526015067007e-32
4.1593746200094e-32
6.5716889016406e-33
1.3305167944516e-32
2.0975652081652e-33
4.2554977123353e-33
6.6510176522118e-34
1.3556104018947e-33
2.0901665505828e-34
4.2878877387924e-34
6.5030346936416e-35
1.3441292306208e-34
2.0026903663109e-35
4.1721018990802e-35
6.1066911438997e-36
1.2821357580867e-35
1.8445507819096e-36
3.9020563705293e-36
5.5215256193625e-37
1.1765323751734e-36
1.6386232230597e-37
3.5159048518274e-37
4.8228393395637e-38
1.041725982258e-37
1.4082399766803e-38
3.0612907239471e-38
4.0808013575561e-39
8.9256073295115e-39
1.1739538009094e-39
2.5828407560213e-39
3.3537428840668e-40
7.420351008768e-40
9.5172388899804e-41
2.1171542210382e-40
2.683589563448e-41
6.0007954052063e-41
7.5207125352722e-42
1.6901022591293e-41
2.0953031659216e-42
4.7312625108592e-42
5.8046633981342e-43
1.3167635696819e-42
1.5994413722916e-43
3.6441199678535e-43
4.3823694140368e-44
1.0032720795316e-43
1.1987102509348e-44
2.7435142722009e-44
3.1745150128718e-45
7.5602962977692e-45
1.0335495851542e-45
1.8586134832429e-45
8.6751846073315e-46
0
0
0
0
0
0
0
0
0
0
3.6625674903214e-60
1.7930998928148e-60
6.6058245893836e-58
3.2354003054544e-58
5.7386082840471e-56
2.8146434984692e-56
3.2026044440242e-54
1.5747740613472e-54
1.2966008561497e-52
6.398107043202e-53
4.0749489854034e-51
2.0196686429839e-51
1.038405020136e-49
5.1732691738423e-50
2.2129853285522e-48
1.1089458283395e-48
4.0296347366437e-47
2.0324207363459e-47
6.3698931413196e-46
3.2357055358119e-46
8.8533275357156e-45
4.5322253949508e-45
1.0916947096974e-43
5.6356778466509e-44
1.2035303509659e-42
6.2690482976357e-43
1.1945552413449e-41
6.2817889059455e-42
1.0733774787072e-40
5.7016265451574e-41
8.7653714671513e-40
4.7045908956621e-40
6.5603559259895e-39
3.5553702274924e-39
4.5670651365148e-38
2.4928883814554e-38
3.034922184839e-37
1.6613605026877e-37
1.9895736916338e-36
1.0885749744683e-36
1.3115526336856e-35
7.1779798956301e-36
8.6320338785089e-35
4.7472790700051e-35
5.5488078971235e-34
3.0817099189796e-34
3.409936947802e-33
1.9184847664849e-33
1.972639915089e-32
1.1260727644042e-32
1.0636347461735e-31
6.1658222798692e-32
5.3130737391929e-31
3.1296785933568e-31
2.4499670778242e-30
1.4673535731475e-30
1.0408400811862e-29
6.3425381004739e-30
4.0700131582972e-29
2.5251915444076e-29
1.4641651454729e-28
9.2569413994425e-29
4.8439227289521e-28
3.1237595878612e-28
1.4727220493669e-27
9.698782605362e-28
4.1101433363665e-27
2.768142698977e-27
1.0511398693682e-26
7.2520752849507e-27
2.4580162200898e-26
1.7405658809473e-26
5.2449037546399e-26
3.8192180753059e-26
1.020673344856e-25
7.6526942468689e-26
1.8172525595187e-25
1.4024536490352e-25
2.9875351130322e-25
2.3660233615291e-25
4.6073938010722e-25
3.7221397274593e-25
6.7992383786549e-25
5.5599837594228e-25
9.7798470805812e-25
8.0381826460098e-25
1.3864616712277e-24
1.1409475179995e-24
1.9369473456132e-24
1.5976595116015e-24
2.6332907756092e-24
2.1924185049325e-24
3.3946523246191e-24
2.894814039062e-24
3.982214246426e-24
3.5601837068992e-24
4.1696898742207e-24
3.93152084752e-24
4.1780464352846e-24
3.9898617164989e-24
4.0890006745124e-24
3.943225390396e-24
3.8181773022062e-24
3.7693239533089e-24
3.3031482696298e-24
3.390746587491e-24
2.5885922418376e-24
2.8031801920786e-24
1.7938297766035e-24
2.0815136791547e-24
1.0730687802016e-24
1.3573659408736e-24
5.4242288140927e-25
7.608331711756e-25
2.2978144837546e-25
3.6128377651966e-25
8.3089403480855e-26
1.4574916861351e-25
2.6918031234996e-26
5.1394309532035e-26
8.2866192865068e-27
1.6621204866951e-26
2.529581828602e-27
5.1706195991282e-27
7.8001492858635e-28
1.5963630374434e-27
2.4389620783351e-28
4.9614535133263e-28
7.7278711647399e-29
1.5593421792511e-28
2.4789369002953e-29
4.9606149377804e-29
8.041961359719e-30
1.5969596273654e-29
2.6326504920342e-30
5.1959234928837e-30
8.6637834366864e-31
1.7039072455462e-30
2.8520776269321e-31
5.6082791722525e-31
9.3448696977846e-32
1.8436983623196e-31
3.035143782152e-32
6.0260286809622e-32
9.747384688289e-33
1.9514003326761e-32
3.0922602105363e-33
6.2483482340558e-33
9.6915857990802e-34
1.976912027477e-33
3.0028212539891e-34
6.1814556192147e-34
9.2048059591878e-35
1.9113070086905e-34
2.793487705522e-35
5.8478910567272e-35
8.3978600912913e-36
1.7715954382012e-35
2.5019891240038e-36
5.3168763762221e-36
7.3906532828989e-37
1.581532344342e-36
2.1653926353468e-37
4.6646106252057e-37
6.2952755156379e-38
1.3647217079937e-37
1.8166691057607e-38
3.9621447622861e-38
5.205570712337e-39
1.1419059430908e-38
1.4815973568641e-39
3.2680590056938e-39
4.1897608813032e-40
9.2906174277486e-40
1.1775102845622e-40
2.6243402465664e-40
3.2897601146724e-41
7.3677547602322e-41
9.1393652481697e-42
2.0563023813111e-41
2.5241408936559e-42
5.7078610863555e-42
6.9582302248614e-43
1.5732940831834e-42
1.8562220441131e-43
4.3700099027686e-43
6.0976351374911e-44
1.0808829826973e-43
5.1065369726884e-44
0
0
0
0
0
0
0
0
7.6005446468477e-71
2.234932669275e-71
1.1293871480883e-58
5.4396168760929e-59
1.7789977704714e-56
8.5887830823752e-57
1.3835579284769e-54
6.6981316672053e-55
7.0673675094064e-53
3.4327337367397e-53
2.6661927245699e-51
1.2999752919857e-51
7.9224441519552e-50
3.8796987669943e-50
1.9316428849224e-48
9.5056714254135e-49
3.9775806464295e-47
1.9679332335844e-47
7.0570546454907e-46
3.5122064208616e-46
1.0952334824354e-44
5.4860960773496e-45
1.504813343861e-43
7.5911089179192e-44
1.8448118419311e-42
9.3779622630174e-43
2.0334831250973e-41
1.0423323516961e-41
2.02665318806e-40
1.0481904830467e-40
1.8339084088537e-39
9.5752689867499e-40
1.5150109966993e-38
7.9911474059503e-39
1.144426080262e-37
6.102707092584e-38
7.9207955116858e-37
4.2664804306287e-37
5.1277238478691e-36
2.7760475046751e-36
3.2692888823623e-35
1.764509827835e-35
2.1790861362252e-34
1.1671370900692e-34
1.5573575183351e-33
8.3083306447884e-34
1.1609212467865e-32
6.2195857330975e-33
8.5568605515014e-32
4.6354406436106e-32
5.9660856598707e-31
3.2805317558536e-31
3.8347721243728e-30
2.1441407854766e-30
2.2436487115655e-29
1.2768993610666e-29
1.1880626031268e-28
6.8879341552357e-29
5.6806264414194e-28
3.3580377401508e-28
2.4510988851387e-27
1.4788734805525e-27
9.546733605119e-27
5.8858848784913e-27
3.3574345324022e-26
2.1179156489381e-26
1.0668478849368e-25
6.8957719069946e-26
3.0620202881948e-25
2.0317016063442e-25
7.9282856475095e-25
5.4114548827952e-25
1.849973658133e-24
1.3018797428644e-24
3.8836684706263e-24
2.8262489559205e-24
7.2950025703366e-24
5.5158356841257e-24
1.2132027960429e-23
9.5941599299369e-24
1.7709046348112e-23
1.4720587991409e-23
2.2909065827449e-23
1.9931814160429e-23
2.724315255224e-23
2.4408386676623e-23
3.1190900564223e-23
2.8222977963431e-23
3.5660685751443e-23
3.2100447969257e-23
4.1646634789022e-23
3.6934407285975e-23
4.9962566566764e-23
4.3561326430239e-23
6.0535065236512e-23
5.2379626942696e-23
7.0886690138087e-23
6.2385349078349e-23
7.5979917682008e-23
6.9895086613263e-23
7.6428755568887e-23
7.1932977809576e-23
7.5500926244995e-23
7.1467442647195e-23
7.1548344981501e-23
6.9104882924893e-23
6.314405893385e-23
6.3238999744873e-23
5.068855148527e-23
5.3423558098636e-23