/*--------------------------------*- C++ -*----------------------------------*\
  =========                 |
  \\      /  F ield         | OpenFOAM: The Open Source CFD Toolbox
   \\    /   O peration     | Website:  https://openfoam.org
    \\  /    A nd           | Version:  7
     \\/     M anipulation  |
\*---------------------------------------------------------------------------*/
FoamFile
{
    version     2.0;
    format      ascii;
    class       volScalarField;
    location    "3.7";
    object      alpha.water;
}
// * * * * * * * * * * * * * * * * * * * * * * * * * * * * * * * * * * * * * //

dimensions      [0 0 0 0 0 0 0];

internalField   nonuniform List<scalar> 
6000
(
0
0
0
0
0
0
0
0
0
0
0
0
0
0
0
0
0
0
0
0
0
0
0
0
0
0
0
0
0
0
0
0
0
0
0
0
0
0
0
0
0
0
0
0
0
0
0
0
0
0
0
0
0
0
0
0
0
0
0
0
0
0
0
0
0
0
0
0
0
0
0
0
0
0
0
0
0
0
0
0
0
0
0
0
0
0
0
0
0
0
0
0
0
0
0
0
0
0
0
0
0
0
0
0
0
0
0
0
0
0
0
0
0
0
0
0
0
0
0
0
0
0
0
0
0
0
0
0
0
0
0
0
0
0
0
0
0
0
0
0
0
0
0
0
0
0
0
0
0
0
0
0
0
0
0
0
0
0
0
0
0
0
0
0
0
0
0
0
0
0
0
0
0
0
0
0
0
0
0
0
0
0
0
0
0
0
0
0
0
0
0
0
0
0
0
0
0
0
0
0
0
0
0
0
0
0
0
0
0
0
0
0
0
0
0
0
0
0
0
0
0
0
0
0
0
0
0
0
0
0
0
0
0
0
0
0
0
0
0
0
0
0
0
0
0
0
0
0
0
0
0
0
0
0
0
0
0
0
0
0
0
0
0
0
0
0
0
0
0
0
0
0
0
0
0
0
0
0
0
0
0
0
0
0
0
0
0
0
0
0
0
0
0
0
0
0
0
0
0
0
0
0
0
0
0
0
0
0
0
0
0
0
0
0
0
0
0
0
0
0
0
0
0
0
0
0
0
0
0
0
0
0
0
0
0
0
0
0
0
0
0
0
0
0
0
0
0
0
0
0
0
0
0
0
0
0
0
0
0
0
0
0
0
0
0
0
0
0
0
0
0
0
0
0
0
0
0
0
0
0
0
0
0
0
0
0
0
0
0
0
0
0
0
0
0
0
0
0
0
0
0
0
0
0
0
0
0
0
0
1.6814626110356e-86
1.9996341430713e-84
1.1832161061159e-82
4.6509125650466e-81
1.3656660072903e-79
3.1979606955337e-78
6.2198416682439e-77
1.0333238011746e-75
1.4969586615801e-74
1.9211169773506e-73
2.2112477193015e-72
2.3056851037672e-71
2.1961552321565e-70
1.9240843232719e-69
1.5598008481253e-68
1.1760146016747e-67
8.2828498461894e-67
5.4709712568175e-66
3.4007256664483e-65
1.9954181381095e-64
1.1082818499646e-63
5.8411875670913e-63
2.9279904988412e-62
1.3987658321643e-61
6.3803535280875e-61
2.7836711955067e-60
1.1634650459216e-59
4.6653852024399e-59
1.7972586084388e-58
6.659959288267e-58
2.3767364295723e-57
8.177397711288e-57
2.7153143607025e-56
8.7099224801972e-56
2.7014091509728e-55
8.1080790599062e-55
2.3569235779367e-54
6.6405181163938e-54
1.8146726134332e-53
4.8131461011066e-53
1.2398624858617e-52
3.1038211215488e-52
7.5552808903425e-52
1.7892666610289e-51
4.1247564555654e-51
9.260580466368e-51
2.0258289669112e-50
4.3200672333382e-50
8.9844480867172e-50
1.8230025161995e-49
3.6103735095061e-49
6.9815671276193e-49
1.3187117611377e-48
2.4338653204832e-48
4.3907722767457e-48
7.7450563570976e-48
1.3362387554805e-47
2.2555422803109e-47
3.726077582459e-47
6.025712075304e-47
9.5419732097032e-47
1.4799756656143e-46
2.2488834688399e-46
3.3487350023493e-46
4.8876286712075e-46
6.9938726431772e-46
9.8137349093555e-46
1.3506419907373e-45
1.8235784997506e-45
2.415868284854e-45
3.1410143147184e-45
4.0086226303963e-45
5.0225865849879e-45
6.1793420078156e-45
7.4664336006579e-45
8.8615829581618e-45
1.0332509294667e-44
1.1837593927152e-44
1.332751925206e-44
1.4747767157853e-44
1.604188692262e-44
1.7155214997084e-44
1.803873057226e-44
1.8652666836373e-44
1.8969469724629e-44
1.897586397096e-44
1.8673735530515e-44
1.8079812396933e-44
1.7224154195249e-44
1.6147681173213e-44
9.9696647731131e-44
0
0
0
0
0
0
0
-1.5565966334125e-76
-1.7725020810104e-74
-1.0052354607478e-72
-3.7856041414578e-71
-1.0649191571695e-69
-2.3867874436282e-68
-4.4394140962419e-67
-7.047813648009e-66
-9.7480850268096e-65
-1.1932205311969e-63
-1.3086112803902e-62
-1.2986928082008e-61
-1.1758705950357e-60
-9.7799774561544e-60
-7.5154232642782e-59
-5.3623406036028e-58
-3.5677338291594e-57
-2.2216389147738e-56
-1.2989593977462e-55
-7.1511820450265e-55
-3.7160520901504e-54
-1.8265306450404e-53
-8.5074821854522e-53
-3.7606692358846e-52
-1.5796233023374e-51
-6.3105502861433e-51
-2.3991594035206e-50
-8.6817472002581e-50
-2.9892985721536e-49
-9.7838100971661e-49
-3.0378132648511e-48
-8.9168358144824e-48
-2.4594766015832e-47
-6.3069375552232e-47
-1.4731373405651e-46
-2.9945702445994e-46
-4.6210059410316e-46
-1.6892046447563e-46
2.5877847180106e-45
1.4830426054691e-44
5.8419547094924e-44
1.9610497499546e-43
5.9693657091671e-43
1.6927251931894e-42
4.5360659582146e-42
1.1586389416962e-41
2.836941464537e-41
6.6851214305864e-41
1.5205335173737e-40
3.3457003572521e-40
7.1344115197083e-40
1.4765318462499e-39
2.9694124346012e-39
5.8088832281915e-39
1.1063702282741e-38
2.0532325386597e-38
3.7154549641028e-38
6.5599086031166e-38
1.1306961929037e-37
1.9036439834365e-37
3.1320496571151e-37
5.0381471666888e-37
7.9267543369057e-37
1.2203204175365e-36
1.8389411666487e-36
2.7135007723809e-36
3.9219766859086e-36
5.5543178723948e-36
7.7097176999604e-36
1.0491892622407e-35
1.4002228373751e-35
1.833090763379e-35
2.3546446927263e-35
2.9684409234052e-35
3.6736370928228e-35
4.4640447784903e-35
5.327476776892e-35
6.2455175314726e-35
7.1938145480511e-35
8.1429392560936e-35
9.0598027410149e-35
9.9095431773201e-35
1.0657737541751e-34
1.1272740342182e-34
1.1727925061015e-34
1.2003604915553e-34
1.2088439212788e-34
1.1980186302977e-34
1.1685736254618e-34
1.1220435615832e-34
1.0606791905885e-34
9.8727067554574e-35
5.9588392759548e-34
0
0
0
0
0
0
-6.9051862153142e-75
-8.0888018367538e-73
-4.7188581743644e-71
-1.8279766325477e-69
-5.2897545877232e-68
-1.2197119874406e-66
-2.3343233941167e-65
-3.8139657470511e-64
-5.4306815725697e-63
-6.845848344998e-62
-7.7354226759014e-61
-7.9137461264716e-60
-7.3912421163739e-59
-6.3461077772365e-58
-5.0387138795102e-57
-3.7184748463593e-56
-2.5619203405443e-55
-1.6542799651992e-54
-1.0045845409371e-53
-5.7547375491411e-53
-3.1182759384037e-52
-1.6022233908909e-51
-7.8238046479575e-51
-3.6381199264905e-50
-1.6139854634284e-49
-6.8425248177067e-49
-2.7764932349472e-48
-1.0798288047291e-47
-4.0304779732786e-47
-1.4455137136889e-46
-4.9869134767001e-46
-1.6566390233857e-45
-5.3041787169656e-45
-1.6382414606129e-44
-4.8848561685888e-44
-1.4071973106471e-43
-3.9189917268431e-43
-1.0557682588665e-42
-2.752760664066e-42
-6.94985744102e-42
-1.6996633597756e-41
-4.0278133341278e-41
-9.2512332193685e-41
-2.0597677091491e-40
-4.4457294527634e-40
-9.3011339715106e-40
-1.8857736456592e-39
-3.7034658005567e-39
-7.0401176903069e-39
-1.2939950768539e-38
-2.2959822484406e-38
-3.92332521535e-38
-6.4332954035181e-38
-1.0066555428047e-37
-1.4893887920013e-37
-2.0496897823428e-37
-2.5373990065231e-37
-2.5921565691984e-37
-1.4798681017749e-37
2.1548507503816e-37
1.0643327665001e-36
2.777396368425e-36
5.9409028537566e-36
1.142278354318e-35
2.0455940169207e-35
3.4723179707066e-35
5.6432437530771e-35
8.8366890030272e-35
1.3389146893626e-34
1.9689614070016e-34
2.8165810810151e-34
3.9261058888291e-34
5.3401528971438e-34
7.0954866494742e-34
9.2182723269172e-34
1.1719125283971e-33
1.4588490695421e-33
1.7792962155814e-33
2.1273146771719e-33
2.4943592652171e-33
2.8695112866201e-33
3.2399584165156e-33
3.5917000424296e-33
3.9104262014108e-33
4.1824929239852e-33
4.3959002330735e-33
4.5411741756846e-33
4.6120622410798e-33
4.6059714386558e-33
4.5241073550001e-33
4.3713064498645e-33
4.155587790195e-33
3.8874796519859e-33
2.3795602325264e-32
0
0
0
0
0
2.2923968606767e-76
-3.7329230114091e-73
-4.4883848742218e-71
-2.6254040503169e-69
-1.0141185854662e-67
-2.9203178686184e-66
-6.6948839577807e-65
-1.2733958034404e-63
-2.0674058323261e-62
-2.9250775402345e-61
-3.6640923329613e-60
-4.114559101627e-59
-4.1838922823377e-58
-3.8845860063669e-57
-3.3162081473576e-56
-2.6184599292425e-55
-1.9220901402592e-54
-1.3175084834241e-53
-8.4659799325568e-53
-5.1173137297053e-52
-2.9186425790207e-51
-1.5750279878827e-50
-8.0619506069436e-50
-3.9229295016993e-49
-1.8183811176072e-48
-8.0439910538583e-48
-3.4018154692557e-47
-1.3774713412948e-46
-5.3482749299324e-46
-1.9938069329298e-45
-7.1454017955371e-45
-2.4645722548591e-44
-8.1901109912545e-44
-2.6248304258513e-43
-8.1203817710748e-43
-2.4271062950611e-42
-7.014337285541e-42
-1.9615301431074e-41
-5.3114968358003e-41
-1.3935896751619e-40
-3.5449635682538e-40
-8.7476513379353e-40
-2.0950756106825e-39
-4.8724155525595e-39
-1.1008177421856e-38
-2.4170478568923e-38
-5.1595022956323e-38
-1.0710706609655e-37
-2.1628733097847e-37
-4.2495191636117e-37
-8.1248110040753e-37
-1.5117962371847e-36
-2.7377258412067e-36
-4.824764249138e-36
-8.2733029044262e-36
-1.3799678311634e-35
-2.2379180684739e-35
-3.5262017588677e-35
-5.3930100226274e-35
-7.9948221446912e-35
-1.1464874823931e-34
-1.5857788019073e-34
-2.1062885748492e-34
-2.6679932921405e-34
-3.1854254646867e-34
-3.5073967445942e-34
-3.3940424223355e-34
-2.4933477018554e-34
-3.2045896230837e-35
3.7558769299685e-34
1.0514720149443e-33
2.0867119675714e-33
3.5818825568815e-33
5.6409132524961e-33
8.3626288148467e-33
1.1830348321398e-32
1.6100332483669e-32
2.1190225524103e-32
2.7068892002531e-32
3.3649136481208e-32
4.0784669787559e-32
4.8272336754973e-32
5.5860072704619e-32
6.3260374533854e-32
7.0168352607855e-32
7.6282782253726e-32
8.1328104355654e-32
8.5075114509801e-32
8.7358170071161e-32
8.8087126072281e-32
8.725282860287e-32
8.492575457756e-32
8.1248176363905e-32
7.6420934999876e-32
4.7368382612579e-31
0
0
0
0
0
1.343120845338e-74
-9.9867354284866e-72
-1.242985475278e-69
-7.3223259683931e-68
-2.8307009399633e-66
-8.1386186514532e-65
-1.8607393385162e-63
-3.5274686161807e-62
-5.7059940770484e-61
-8.0419246691187e-60
-1.0033555803832e-58
-1.1221489279468e-57
-1.1364113996661e-56
-1.0508201702833e-55
-8.9343549581429e-55
-7.0262055872072e-54
-5.1371607300653e-53
-3.5075401893694e-52
-2.245202079636e-51
-1.3520157287936e-50
-7.6827697028903e-50
-4.1310563674379e-49
-2.1071268077885e-48
-1.0218414730209e-47
-4.7209384170506e-47
-2.0817884467461e-46
-8.7771196146928e-46
-3.5437122308635e-45
-1.3721025015963e-44
-5.1017544609112e-44
-1.8238876620983e-43
-6.276600100229e-43
-2.0814514694485e-42
-6.6582434625833e-42
-2.0564205944894e-41
-6.137678062085e-41
-1.7717111306222e-40
-4.9500860044607e-40
-1.3396063486646e-39
-3.513828040353e-39
-8.93920208149e-39
-2.2069421480285e-38
-5.2905386421335e-38
-1.2321198146228e-37
-2.7890906139342e-37
-6.1394163429061e-37
-1.314711378799e-36
-2.7399512898512e-36
-5.5593072850578e-36
-1.0985155655103e-35
-2.1145954392655e-35
-3.9664016143848e-35
-7.2512217500349e-35
-1.2922611673032e-34
-2.2453004713892e-34
-3.8038446058398e-34
-6.2836169852194e-34
-1.0120944476577e-33
-1.5893082214525e-33
-2.432653329988e-33
-3.6282223464784e-33
-5.2703345636971e-33
-7.4509792888358e-33
-1.0242350708354e-32
-1.3671303307745e-32
-1.7685414196053e-32
-2.2111706206012e-32
-2.6610915361925e-32
-3.0632300784537e-32
-3.3376075474848e-32
-3.3772142825784e-32
-3.0484454769674e-32
-2.1949496546118e-32
-6.4548377109082e-33
1.7740670941172e-32
5.2249311546421e-32
9.8370396352733e-32
1.5689689520028e-31
2.2793498808896e-31
3.1076111536341e-31
4.0374005577709e-31
5.0432276108745e-31
6.0913442469648e-31
7.1415253513752e-31
8.1496297638629e-31
9.0707139065433e-31
9.8623878577857e-31
1.0488061493574e-30
1.0919733844206e-30
1.1140031742033e-30
1.1143295980265e-30
1.0935630098781e-30
1.0533950559049e-30
9.9641892303416e-31
6.2416070209915e-30
0
0
0
0
2.2294636063641e-86
3.9246375048234e-73
-1.760216676524e-70
-2.2837220715768e-68
-1.3575785815827e-66
-5.2590284621902e-65
-1.5111701289304e-63
-3.448667254339e-62
-6.5212602974199e-61
-1.0517760863782e-59
-1.4776217421119e-58
-1.8373714124136e-57
-2.0477844387066e-56
-2.0664779477465e-55
-1.903998906162e-54
-1.6130017348858e-53
-1.263928472374e-52
-9.2078123781022e-52
-6.2643099510991e-51
-3.995509337288e-50
-2.3974865813836e-49
-1.3575753868855e-48
-7.2743644910482e-48
-3.697689648218e-47
-1.7871008196588e-46
-8.2288906222997e-46
-3.616766105815e-45
-1.5199592920889e-44
-6.1173251062162e-44
-2.3612491476357e-43
-8.7530201421443e-43
-3.1199862396694e-42
-1.0706084063768e-41
-3.5404780513753e-41
-1.1294973092162e-40
-3.4794512644251e-40
-1.0359116685806e-39
-2.9831927631587e-39
-8.3161957491404e-39
-2.2457979042417e-38
-5.8791980749985e-38
-1.4929600977316e-37
-3.6798128621115e-37
-8.8084584760957e-37
-2.0488270482083e-36
-4.6330025139977e-36
-1.0190112004262e-35
-2.1809670409572e-35
-4.5441756400664e-35
-9.2207660176922e-35
-1.8228161097349e-34
-3.5117925700129e-34
-6.5956739291594e-34
-1.2079689310292e-33
-2.1578829788198e-33
-3.7607244575329e-33
-6.3954099979674e-33
-1.0614140676103e-32
-1.7193730483939e-32
-2.7186560080781e-32
-4.1960945032796e-32
-6.3215749507932e-32
-9.2949211002783e-32
-1.333583797186e-31
-1.8664491242006e-31
-2.5470695983731e-31
-3.3870710737629e-31
-4.3852361542924e-31
-5.5211613658375e-31
-6.7486552080643e-31
-7.9897620726515e-31
-9.1305332608425e-31
-1.0019783676739e-30
-1.047200830889e-30
-1.0275342407798e-30
-9.2049238937503e-31
-7.0412924705119e-31
-3.5926228642772e-31
1.2812330790163e-31
7.6455787330369e-31
1.5471610442001e-30
2.4624019003424e-30
3.4857873725427e-30
4.5826236092579e-30
5.7098663315788e-30
6.8189344992619e-30
7.859228970881e-30
8.7819959505315e-30
9.5441210149561e-30
1.0111442691551e-29
1.0461234550761e-29
1.0583611720731e-29
1.0481754249069e-29
1.0170984312887e-29
9.6768652717839e-30
6.1142511832275e-29
0
0
0
0
1.338542142773e-84
7.6255478664935e-72
-2.2947585226904e-69
-3.1288190656559e-67
-1.8799933998991e-65
-7.303693247331e-64
-2.0986521838787e-62
-4.7826771506324e-61
-9.024343223066e-60
-1.4516903209469e-58
-2.0335468043165e-57
-2.5208320937996e-56
-2.8004629847933e-55
-2.8166659189972e-54
-2.5864427012789e-53
-2.183655215151e-52
-1.7051899926401e-51
-1.2379431615532e-50
-8.392825691337e-50
-5.3345481239892e-49
-3.1898808704762e-48
-1.8000283408525e-47
-9.6119965447833e-47
-4.8692236556176e-46
-2.3452974579451e-45
-1.0762666799499e-44
-4.7145474077078e-44
-1.9747169610623e-43
-7.9213860879547e-43
-3.0476326686296e-42
-1.1260961393347e-41
-4.0011388626599e-41
-1.3686513813291e-40
-4.5120554488154e-40
-1.4350547458383e-39
-4.4074421891066e-39
-1.308321859488e-38
-3.7567673547737e-38
-1.0443011734685e-37
-2.8123464854088e-37
-7.3425110131957e-37
-1.8596741223753e-36
-4.5720720210641e-36
-1.0917559531622e-35
-2.5334502949026e-35
-5.7160765885764e-35
-1.2545680394125e-34
-2.6797877032389e-34
-5.5731953169646e-34
-1.1289694785006e-33
-2.2284326489336e-33
-4.2875644803474e-33
-8.0437651536125e-33
-1.471901166573e-32
-2.6277895436076e-32
-4.5783201494576e-32
-7.7861867463451e-32
-1.2928073691673e-31
-2.0960779385091e-31
-3.3189886081468e-31
-5.1330242818282e-31
-7.7542002934137e-31
-1.1442044531389e-30
-1.6491359928477e-30
-2.3214048892622e-30
-3.1908649760861e-30
-4.2816259453791e-30
-5.6063287681095e-30
-7.1593965153495e-30
-8.9098490922184e-30
-1.0794573455512e-29
-1.2713191899547e-29
-1.45258020287e-29
-1.6054808970972e-29
-1.7091788846998e-29
-1.7409803458766e-29
-1.6780867048033e-29
-1.4997433452393e-29
-1.1895953687631e-29
-7.3798991489949e-30
-1.4392973506125e-30
5.8361083997716e-30
1.4252444340521e-29
2.3517468179657e-29
3.3256701841427e-29
4.3038773412745e-29
5.240754605613e-29
6.0917652810707e-29
6.8169558832564e-29
7.3840318875606e-29
7.7706776999805e-29
7.9658967470868e-29
7.9702751838432e-29
7.7952063227486e-29
7.4612323901088e-29
4.747896084837e-28
0
0
0
0
3.9863686286898e-83
1.1083336705715e-70
-2.3536451519632e-68
-3.4075461322911e-66
-2.0730581865661e-64
-8.0825789006239e-63
-2.3233791944251e-61
-5.288996414342e-60
-9.9605800588884e-59
-1.5984361894618e-57
-2.2330050071632e-56
-2.7599460298312e-55
-3.05663024323e-54
-3.0644939938155e-53
-2.8048104395679e-52
-2.3601410542063e-51
-1.8368032357951e-50
-1.3289672804667e-49
-8.9791888394688e-49
-5.6876968573083e-48
-3.3893788751158e-47
-1.9060342241935e-46
-1.0143108043762e-45
-5.1206482577625e-45
-2.4579536920422e-44
-1.1241128183804e-43
-4.9073696504368e-43
-2.0485078853853e-42
-8.1896232389586e-42
-3.1402332351184e-41
-1.1564277789748e-40
-4.095229794837e-40
-1.3961998503722e-39
-4.5877361136151e-39
-1.4543589059871e-38
-4.4522496437703e-38
-1.3173728294285e-37
-3.7707001495097e-37
-1.044865592872e-36
-2.8050779541961e-36
-7.3009248606335e-36
-1.8435052270909e-35
-4.5186995945223e-35
-1.0758189972948e-34
-2.4892100554406e-34
-5.6002469306532e-34
-1.2257171062591e-33
-2.6110367589344e-33
-5.4158451259415e-33
-1.094283648219e-32
-2.1546332207649e-32
-4.1357628740834e-32
-7.7415110123805e-32
-1.4135874917193e-31
-2.5186950059678e-31
-4.380295820181e-31
-7.4372961932026e-31
-1.2331295752006e-30
-1.9969697768054e-30
-3.1592120723925e-30
-4.8830732992208e-30
-7.3750270933691e-30
-1.088486699391e-29
-1.5699556378534e-29
-2.2128485698748e-29
-3.0478074879169e-29
-4.1014537300198e-29
-5.3915133222836e-29
-6.9210341856851e-29
-8.6721877683479e-29
-1.060040096348e-28
-1.2629771547076e-28
-1.4650825545947e-28
-1.6521625950182e-28
-1.8073004515194e-28
-1.9118257550581e-28
-1.9467056490749e-28
-1.8942648287921e-28
-1.7400764744422e-28
-1.4748144525883e-28
-1.0958309782365e-28
-6.0823117112911e-29
-2.5259364736168e-30
6.3211204347485e-29
1.3364019483635e-28
2.0555526063107e-28
2.75538183306e-28
3.4022907309983e-28
3.9659272682795e-28
4.4215134223691e-28
4.7515916807719e-28
4.9470268663769e-28
5.0071979311829e-28
4.9394156547802e-28
4.7576908920308e-28
3.0454777295779e-27
0
0
0
0
7.8770295795706e-82
1.2853292557883e-69
-1.9704303530558e-67
-3.0711515077394e-65
-1.8953813263052e-63
-7.4216045559674e-62
-2.1350468716289e-60
-4.8561544693834e-59
-9.1295789710573e-58
-1.4617618857262e-56
-2.0367459024635e-55
-2.5102234097938e-54
-2.7717129953433e-53
-2.770170141638e-52
-2.5272943341403e-51
-2.1196630652423e-50
-1.6441709780469e-49
-1.1855999993044e-48
-7.9834126871659e-48
-5.0397212471195e-47
-2.9929686239631e-46
-1.6773354562124e-45
-8.8953727846479e-45
-4.4752754567547e-44
-2.1407653063662e-43
-9.7567546791481e-43
-4.2446767172174e-42
-1.7657720282975e-41
-7.0349873399646e-41
-2.688223582178e-40
-9.8657054105427e-40
-3.4817411516574e-39
-1.1829793339761e-38
-3.8738475332437e-38
-1.2238656806188e-37
-3.7339087194657e-37
-1.1010811670938e-36
-3.140971521415e-36
-8.6743969364071e-36
-2.3209554203996e-35
-6.0207363586408e-35
-1.5152129247711e-34
-3.7017659505385e-34
-8.7843693052744e-34
-2.0259080021264e-33
-4.5432268593796e-33
-9.9119795862264e-33
-2.1048038913193e-32
-4.3522214367063e-32
-8.7667902553127e-32
-1.7209666702762e-31
-3.2935822453047e-31
-6.1472532676484e-31
-1.1193169471131e-30
-1.9889225664201e-30
-3.4498447617745e-30
-5.8426880251066e-30
-9.6641180574511e-30
-1.5615038916329e-29
-2.4651293230392e-29
-3.8029929575137e-29
-5.7340562369946e-29
-8.4507909429205e-29
-1.217490556667e-28
-1.7146841118547e-28
-2.3607583056932e-28
-3.1771987434306e-28
-4.1793915087197e-28
-5.3724966867652e-28
-6.7470367121774e-28
-8.2747291046319e-28
-9.905232334909e-28
-1.1564538272049e-27
-1.3155700221559e-27
-1.4562410519583e-27
-1.5655636044417e-27
-1.6303110514839e-27
-1.6381022305984e-27
-1.5786799262551e-27
-1.4451559355405e-27
-1.2350642020527e-27
-9.5107094883785e-28
-6.0122229429969e-28
-1.9866239533942e-28
2.3917846995059e-28
6.9185643956537e-28
1.1375153554991e-27
1.5546403385989e-27
1.9237676698304e-27
2.2289634421087e-27
2.458917905302e-27
2.6075566228546e-27
2.6741342231471e-27
2.6628412480274e-27
2.5820097548254e-27
1.6610061196346e-26
0
0
0
0
1.162431413599e-80
1.2388490560206e-68
-1.3766182307964e-66
-2.3545656352127e-64
-1.4774187040331e-62
-5.8143934255446e-61
-1.6746476648106e-59
-3.8066656941017e-58
-7.1453235059415e-57
-1.14160683296e-55
-1.5866620452479e-54
-1.950106234e-53
-2.1469173241225e-52
-2.1391370139712e-51
-1.9454110374269e-50
-1.6263506759819e-49
-1.2573665010747e-48
-9.0365318575326e-48
-6.0643751788122e-47
-3.8152779351131e-46
-2.2580559011148e-45
-1.2611241350167e-44
-6.6650193527674e-44
-3.3415770853087e-43
-1.5929098968916e-42
-7.2346024472502e-42
-3.1364494169939e-41
-1.3002006535052e-40
-5.1620142639187e-40
-1.9656208467816e-39
-7.1885217183203e-39
-2.5280393532622e-38
-8.5593234232981e-38
-2.793051605263e-37
-8.7931359254256e-37
-2.6732956100268e-36
-7.8555356039932e-36
-2.2330263971234e-35
-6.145300066004e-35
-1.6384964073005e-34
-4.2354992224278e-34
-1.062201496031e-33
-2.5859671996417e-33
-6.1151728681446e-33
-1.4054198379649e-32
-3.1408272181969e-32
-6.8287218386753e-32
-1.4450984443011e-31
-2.9779151882643e-31
-5.9781646161194e-31
-1.1696011873412e-30
-2.2309311539744e-30
-4.1501866804426e-30
-7.5323011956829e-30
-1.334144166795e-29
-2.3068554314524e-29
-3.894924520693e-29
-6.4231519564006e-29
-1.0348275119207e-28
-1.6291042036086e-28
-2.5065207271103e-28
-3.7696839893719e-28
-5.5425278541182e-28
-7.9675632033374e-28
-1.1199254976761e-27
-1.539267401019e-27
-2.0686992466451e-27
-2.7184077565235e-27
-3.4923356206896e-27
-4.3855174988303e-27
-5.3815902608325e-27
-6.4508802104876e-27
-7.5495010861665e-27
-8.6198611810292e-27
-9.5928650911258e-27
-1.0391907741298e-26
-1.0938513584237e-26
-1.1159205455686e-26
-1.0992939534637e-26
-1.0398262489296e-26
-9.35927528162e-27
-7.8895508287568e-27
-6.0333528611463e-27
-3.863818737437e-27
-1.4781548257235e-27
1.0097107040062e-27
3.4782303693859e-27
5.8080751603089e-27
7.8916018368722e-27
9.6409163703011e-27
1.0993714759145e-26
1.1916399845642e-26
1.2404338534904e-26
1.2479479371632e-26
1.2185843733949e-26
7.8707276734769e-26
0
0
0
0
1.3678643808261e-79
1.0207120827573e-67
-8.1144095358055e-66
-1.5663604194964e-63
-1.0019444654965e-61
-3.9666391046869e-60
-1.1442831840969e-58
-2.6001483609473e-57
-4.8737697981851e-56
-7.7710370377341e-55
-1.0774382484956e-53
-1.3206686097359e-52
-1.4497568609957e-51
-1.4401305691728e-50
-1.305607044697e-49
-1.0879734443719e-48
-8.3838181134727e-48
-6.0053200441185e-47
-4.0165913034402e-46
-2.5183784066762e-45
-1.4853923936278e-44
-8.2673517384937e-44
-4.3541551561974e-43
-2.1754086332335e-42
-1.0333829680223e-41
-4.676920735721e-41
-2.0204770517296e-40
-8.3462570328923e-40
-3.3018859418654e-39
-1.2528529315867e-38
-4.5655549924017e-38
-1.5998813608675e-37
-5.3974643688457e-37
-1.7549803540608e-36
-5.505245712486e-36
-1.6676938356948e-35
-4.8829075278147e-35
-1.3830154552279e-34
-3.7923121548658e-34
-1.0074694191025e-33
-2.5948620574409e-33
-6.4839272598285e-33
-1.5728036063043e-32
-3.7057805618338e-32
-8.4858691795597e-32
-1.8895313437173e-31
-4.0932718196204e-31
-8.6308173131e-31
-1.7721211213456e-30
-3.5447039844229e-30
-6.910137830763e-30
-1.3133460667072e-29
-2.4345222594705e-29
-4.4028901472564e-29
-7.7712365596468e-29
-1.3390616484792e-28
-2.2531521749033e-28
-3.7031614441733e-28
-5.9463540815587e-28
-9.3308163009206e-28
-1.4310822091851e-27
-2.1456603219503e-27
-3.1453831723771e-27
-4.5087443125503e-27
-6.320446139932e-27
-8.6651573517528e-27
-1.1618559394268e-26
-1.5235871870919e-26
-1.9538537030147e-26
-2.4500291294186e-26
-3.0034367901429e-26
-3.5983946929526e-26
-4.2118081336567e-26
-4.8135086162229e-26
-5.3674737651905e-26
-5.8339615854003e-26
-6.1724645380497e-26
-6.3452525849521e-26
-6.3211525982456e-26
-6.0791280983948e-26
-5.6111978209872e-26
-4.9242750965122e-26
-4.0406216020072e-26
-2.996775172756e-26
-1.8410076528863e-26
-6.2956421159059e-27
5.7790164765194e-27
1.7231794946462e-26
2.7540934943347e-26
3.6283374080844e-26
4.3161735764929e-26
4.8017794736818e-26
5.0832065885566e-26
5.171086891351e-26
5.0863575854262e-26
3.2947741586691e-25
0
0
0
0
1.3368230823981e-78
7.3385351911487e-67
-4.0304376321768e-65
-9.1764721481453e-63
-6.0034421443471e-61
-2.393271711649e-59
-6.918251429379e-58
-1.5718788299063e-56
-2.9427224173483e-55
-4.6831010487743e-54
-6.4778300356627e-53
-7.9192942373178e-52
-8.6686871052982e-51
-8.585384667867e-50
-7.759265893489e-49
-6.4452332867278e-48
-4.9504481795375e-47
-3.5342501784567e-46
-2.3559054127478e-45
-1.4721235721729e-44
-8.6531479085795e-44
-4.7995172388563e-43
-2.518971952365e-42
-1.2541221124008e-41
-5.9365206423122e-41
-2.6772889680125e-40
-1.1525163461932e-39
-4.7439120953455e-39
-1.870047857931e-38
-7.0701855712651e-38
-2.5671947411458e-37
-8.9635924869469e-37
-3.0130605803633e-36
-9.7613264381133e-36
-3.0508903503418e-35
-9.2081932219924e-35
-2.6862089569362e-34
-7.5803038581219e-34
-2.0708907191983e-33
-5.4811780015556e-33
-1.4065036422471e-32
-3.5014276306995e-32
-8.4617102582254e-32
-1.9862621176782e-31
-4.5313062357877e-31
-1.0051917837116e-30
-2.1693582822388e-30
-4.5569817948288e-30
-9.32144027264e-30
-1.8575234482559e-29
-3.6075072753868e-29
-6.8307509388614e-29
-1.2614663150883e-28
-2.2728862516242e-28
-3.9968224612105e-28
-6.8614980715063e-28
-1.1503060235376e-27
-1.883706449431e-27
-3.0138730933506e-27
-4.7124466112781e-27
-7.2022225106702e-27
-1.0761299393929e-26
-1.5722098552681e-26
-2.2462742936381e-26
-3.1388369177173e-26
-4.2900541182552e-26
-5.7354140659846e-26
-7.500293516647e-26
-9.5937337045264e-26
-1.2002037863707e-25
-1.4683020811448e-25
-1.7561893435927e-25
-2.0529790138326e-25
-2.3445806031442e-25
-2.6143088296957e-25
-2.8439041501807e-25
-3.0149115535325e-25
-3.1103034567377e-25
-3.1161801982823e-25
-3.0233484504611e-25
-2.8285720434222e-25
-2.5353151171754e-25
-2.1538526142462e-25
-1.7007007121992e-25
-1.1974081656036e-25
-6.6883455169158e-26
-1.4110922172449e-26
3.6049558801142e-26
8.1353846898269e-26
1.2000187915383e-25
1.5074688329369e-25
1.7294483028919e-25
1.8654409261989e-25
1.9202249216419e-25
1.9028441077718e-25
1.2344920171249e-24
0
0
0
0
1.1157745755731e-77
4.6769319791156e-66
-1.6503236147394e-64
-4.7879163224686e-62
-3.2165664097064e-60
-1.2927140873502e-58
-3.7465163130225e-57
-8.5140198217988e-56
-1.5922358816239e-54
-2.5293885439505e-53
-3.4908596763086e-52
-4.2566983731858e-51
-4.6465034151832e-50
-4.5882618092088e-49
-4.1340053624586e-48
-3.4230219100408e-47
-2.6206172485895e-46
-1.8647396168632e-45
-1.2388511932037e-44
-7.7148606594696e-44
-4.519239427383e-43
-2.4979466600164e-42
-1.306447352148e-41
-6.4815851125462e-41
-3.0572926799202e-40
-1.3739010796128e-39
-5.8932465480453e-39
-2.417040899166e-38
-9.4936411139884e-38
-3.5763230316463e-37
-1.2938498267205e-36
-4.5011109387073e-36
-1.5074799875819e-35
-4.8657770560351e-35
-1.5151767933034e-34
-4.5561519530209e-34
-1.3241720701674e-33
-3.7227679346185e-33
-1.0132233940119e-32
-2.6716814980897e-32
-6.829809726882e-32
-1.6938083050895e-31
-4.0777746426205e-31
-9.5354778514582e-31
-2.1670319573196e-30
-4.7887521308573e-30
-1.0295138160295e-29
-2.1542796302795e-29
-4.3896375040429e-29
-8.7136154906667e-29
-1.6857301758859e-28
-3.1795464290897e-28
-5.8490897688909e-28
-1.0498017901138e-27
-1.8389236134081e-27
-3.1447822731387e-27
-5.2518574777228e-27
-8.5673692827067e-27
-1.3655347165195e-26
-2.1270554618926e-26
-3.2386734979547e-26
-4.8211462608207e-26
-7.0178047903529e-26
-9.9904043774226e-26
-1.3910659747484e-25
-1.8946778544911e-25
-2.5244851820046e-25
-3.2905753093663e-25
-4.1959171924736e-25
-5.2337432724924e-25
-6.385263825044e-25
-7.6181213651751e-25
-8.885990692812e-25
-1.0129658270147e-24
-1.1279769545637e-24
-1.2261225473845e-24
-1.2998965462794e-24
-1.3424630887069e-24
-1.3483404600138e-24
-1.3140208598997e-24
-1.2384443871298e-24
-1.1232584559404e-24
-9.7281813621492e-25
-7.9391530729895e-25
-5.9526003225216e-25
-3.8677046330194e-25
-1.7875251406267e-25
1.8936486642736e-26
1.976467363955e-25
3.5053803124001e-25
4.7296980167155e-25
5.6265418121516e-25
6.1957827857261e-25
6.457290289725e-25
6.4467366900602e-25
4.1827030097876e-24
0
0
0
0
8.1192391111765e-77
2.6750842583317e-65
-5.1499969263448e-64
-2.2439377033464e-61
-1.5558965997248e-59
-6.3125441985953e-58
-1.8353116195943e-56
-4.1729402084537e-55
-7.7973024963794e-54
-1.2366148378134e-52
-1.7029929902174e-51
-2.0714117654829e-50
-2.254904486296e-49
-2.220147000251e-48
-1.9942444643247e-47
-1.6460617541168e-46
-1.2561275724186e-45
-8.9086832554444e-45
-5.8986981937e-44
-3.6608945195485e-43
-2.137124837918e-42
-1.1771686423826e-41
-6.1351578353718e-41
-3.0330672302542e-40
-1.4255896872463e-39
-6.3835207977371e-39
-2.7283363866254e-38
-1.1149554171023e-37
-4.3634359262553e-37
-1.637748503984e-36
-5.9033922141552e-36
-2.0461504608097e-35
-6.8275109626737e-35
-2.195579055867e-34
-6.811445792119e-34
-2.0405464262139e-33
-5.9082411119277e-33
-1.6547734106247e-32
-4.4867295707403e-32
-1.1785686473096e-31
-3.0013579745746e-31
-7.4149121797072e-31
-1.7782434541351e-30
-4.1421948393387e-30
-9.3770757817777e-30
-2.064109336662e-29
-4.4202330286709e-29
-9.2132403149879e-29
-1.8699557776773e-28
-3.6973351402763e-28
-7.1246259869274e-28
-1.3385022609334e-27
-2.4525568959052e-27
-4.3844245803715e-27
-7.6496557774051e-27
-1.3029898499295e-26
-2.1673848439123e-26
-3.5216393515167e-26
-5.5908457001328e-26
-8.6743251265999e-26
-1.3155667127701e-25
-1.9507150407643e-25
-2.8284877170888e-25
-4.0110714360141e-25
-5.5637541618789e-25
-7.5495566431208e-25
-1.0021968642013e-24
-1.3016098566018e-24
-1.6538914786035e-24
-2.0559631920315e-24
-2.5001603292699e-24
-2.9737241329448e-24
-3.4587428997491e-24
-3.932656278168e-24
-4.3693780201106e-24
-4.7410125201533e-24
-5.0200498515378e-24
-5.1818372334516e-24
-5.2070579292905e-24
-5.083915788742e-24
-4.809734453559e-24
-4.3917367939996e-24
-3.8468662287307e-24
-3.2006333489568e-24
-2.4850995797683e-24
-1.7362236324634e-24
-9.9087771106449e-25
-2.8387618211605e-25
3.5465477812115e-25
9.0129789710267e-25
1.3405808825185e-24
1.6653635722565e-24
1.8764213486777e-24
1.981361914675e-24
1.993075158186e-24
1.2917185135375e-23
0
0
0
0
5.2331669106544e-76
1.3870333083915e-64
-8.2160759107585e-64
-9.506095338592e-61
-6.8474267840402e-59
-2.8091427454173e-57
-8.1989542326147e-56
-1.8658447093628e-54
-3.4842077482012e-53
-5.5174690677641e-52
-7.5827068535212e-51
-9.2007417389028e-50
-9.9888674045974e-49
-9.8066053855186e-48
-8.7821689355713e-47
-7.2261605717391e-46
-5.4966117122845e-45
-3.8854716014377e-44
-2.564069900604e-43
-1.5859264818135e-42
-9.226345883724e-42
-5.0643864119316e-41
-2.6301978582684e-40
-1.2957074949901e-39
-6.0683503750046e-39
-2.7075557638765e-38
-1.1530461484557e-37
-4.6949301171403e-37
-1.8306898897195e-36
-6.8460492236901e-36
-2.4586315530128e-35
-8.4902603206716e-35
-2.8224761738963e-34
-9.0426214641647e-34
-2.7948276832955e-33
-8.3411478622309e-33
-2.4059930262792e-32
-6.7131252006447e-32
-1.8132572999253e-31
-4.7448340993489e-31
-1.2036877431385e-30
-2.9622740199349e-30