/*--------------------------------*- C++ -*----------------------------------*\
  =========                 |
  \\      /  F ield         | OpenFOAM: The Open Source CFD Toolbox
   \\    /   O peration     | Website:  https://openfoam.org
    \\  /    A nd           | Version:  7
     \\/     M anipulation  |
\*---------------------------------------------------------------------------*/
FoamFile
{
    version     2.0;
    format      ascii;
    class       volScalarField;
    location    "1.1";
    object      alpha.water;
}
// * * * * * * * * * * * * * * * * * * * * * * * * * * * * * * * * * * * * * //

dimensions      [0 0 0 0 0 0 0];

internalField   nonuniform List<scalar> 
6000
(
0
0
0
0
0
0
0
0
0
0
0
0
0
0
0
0
0
0
0
0
0
0
0
0
0
0
0
0
0
0
0
0
0
0
0
0
0
0
0
0
0
0
0
0
0
0
0
0
0
0
0
0
0
0
0
0
0
0
0
0
0
0
0
0
0
0
0
0
0
0
0
0
0
0
0
0
0
0
0
0
0
0
0
0
0
0
0
0
0
0
0
0
0
0
0
0
0
0
0
0
0
0
0
0
0
0
0
0
0
0
0
0
0
0
0
0
0
0
0
0
0
0
0
0
0
0
0
0
0
0
0
0
0
0
0
0
0
0
0
0
0
0
0
0
0
0
0
0
0
0
0
0
0
0
0
0
0
0
0
0
0
0
0
0
0
0
0
0
0
0
0
0
0
0
0
0
0
0
0
0
0
0
0
0
0
0
0
0
0
0
0
0
0
0
0
0
0
0
0
0
0
0
0
0
0
0
0
0
0
0
0
0
0
0
0
0
0
0
0
0
0
0
0
0
0
0
0
0
0
0
0
0
0
0
0
0
0
0
0
0
0
0
0
0
0
0
0
0
0
0
0
0
0
0
0
0
0
0
0
0
0
0
0
0
0
0
0
0
0
0
0
0
0
0
0
0
0
0
0
0
0
0
0
0
0
0
0
0
0
0
0
0
0
0
0
0
0
0
0
0
0
0
0
0
0
0
0
0
0
0
0
0
0
0
0
0
0
0
0
0
0
0
0
0
0
0
0
0
0
0
0
0
0
0
0
0
0
0
0
0
0
0
0
0
0
0
0
0
0
0
0
0
0
0
0
0
0
0
0
0
0
0
0
0
0
0
0
0
0
0
0
0
0
0
0
0
0
0
0
0
0
0
0
0
0
0
0
0
0
0
0
0
0
0
0
0
0
0
0
0
0
0
0
0
0
0
0
0
0
4.8228293096e-44
1.7123077418598e-42
3.005636586239e-41
3.4769172351719e-40
2.9814641181509e-39
2.0211096137518e-38
1.12806028388e-37
5.3310877180442e-37
2.1773312008295e-36
7.8059569368508e-36
2.4868268847798e-35
7.110131258327e-35
1.8393179635673e-34
4.334510222299e-34
9.3591266574249e-34
1.8607760445896e-33
3.4212211573672e-33
5.838831185554e-33
9.2803086700978e-33
1.3777223613405e-32
1.9153846811055e-32
2.4995324750158e-32
3.0681861845646e-32
3.5493371720196e-32
3.8761486472551e-32
4.0023714736735e-32
3.913036100692e-32
3.6270317284936e-32
3.1911182253634e-32
2.6678283360849e-32
2.1214177267278e-32
1.6059859016226e-32
1.1584181974448e-32
7.9676098699116e-33
5.2291710299698e-33
3.276852186843e-33
1.9617945442193e-33
1.1226739345886e-33
6.144224339194e-34
3.217241869555e-34
1.6124076726152e-34
7.7373765153826e-35
3.5561202836403e-35
1.5658230014433e-35
6.6068752904964e-36
2.6719298685419e-36
1.0358637211664e-36
3.8502336249026e-37
1.3722153238011e-37
4.6896157569701e-38
1.5369052352709e-38
4.8300551622601e-39
1.4555869993924e-39
4.2060713974224e-40
1.1652632059665e-40
3.0947235283949e-41
7.8776395232487e-42
1.9215742279943e-42
4.4905456510149e-43
1.0050769950526e-43
2.1538617040607e-44
4.4177040418867e-45
8.6687988279165e-46
1.6267034373623e-46
2.9176146096096e-47
4.9989494308031e-48
8.1770946723823e-49
1.2761525675507e-49
1.8987913169933e-50
2.6914290325573e-51
3.6311968930436e-52
4.6588186081437e-53
5.678374937532e-54
6.5677997226219e-55
7.2002465280563e-56
7.4721458171532e-57
7.3299833668246e-58
6.7866363736301e-59
5.920704912111e-60
4.8580814487875e-61
3.7416031211552e-62
2.698951927905e-63
1.8189565211087e-64
1.1422804568016e-65
6.6642496205197e-67
3.6000883315189e-68
1.7940661731772e-69
8.2129562153994e-71
3.43731890945e-72
1.3080396325017e-73
4.6398726726798e-75
0
0
0
0
0
0
0
-4.4579221424135e-34
-1.3672604568471e-32
-2.0580111137548e-31
-2.022206841215e-30
-1.454183745464e-29
-8.1205993885403e-29
-3.638517187902e-28
-1.3272432790768e-27
-3.9224114930851e-27
-9.0060831293031e-27
-1.3447546673359e-26
2.9670358262394e-27
1.0974201047747e-25
4.8801636535235e-25
1.5260413831333e-24
3.9284001000696e-24
8.7859591072812e-24
1.7526180911358e-23
3.1670383554719e-23
5.2386593546094e-23
7.9933781998106e-23
1.1319561345648e-22
1.4953110970726e-22
1.8508454109509e-22
2.1552068381443e-22
2.3696876798248e-22
2.468657947999e-22
2.4443526772722e-22
2.3069080968388e-22
2.0803140576178e-22
1.79612989617e-22
1.4870344270579e-22
1.1817327199686e-22
9.0189711751521e-23
6.6110140803076e-23
4.6530117705256e-23
3.1428926563012e-23
2.0359426632755e-23
1.2639457007034e-23
7.5146441478038e-24
4.2758157268562e-24
2.3270580234146e-24
1.2107586615504e-24
6.0199212242474e-25
2.8593001416919e-25
1.2970112913387e-25
5.6174920216145e-26
2.3225740496237e-26
9.1653081437494e-27
3.451437791288e-27
1.2400867410017e-27
4.2503149773259e-28
1.3893642818319e-28
4.3304582169711e-29
1.2866371180119e-29
3.6428987851286e-30
9.8254257588866e-31
2.5234294815276e-31
6.1682832347027e-32
1.4343059243377e-32
3.1707744025368e-33
6.659547255432e-34
1.3278673806448e-34
2.5114929040023e-35
4.5016441280442e-36
7.6387243879555e-37
1.2256838497405e-37
1.8573115104464e-38
2.6540984681015e-39
3.5709306239852e-40
4.5154753235669e-41
5.3557109883915e-42
5.9449912951626e-43
6.1604598340722e-44
5.9424930621285e-45
5.3188425753126e-46
4.4010841271052e-47
3.3524257531217e-48
2.3393113752014e-49
1.4868229027294e-50
8.5493548786624e-52
4.4115365439766e-53
2.0227603810772e-54
8.1410265874113e-56
2.831579207517e-57
8.3389088085587e-59
2.0218750186867e-60
3.8752570072721e-62
5.5053176772873e-64
5.1536287530098e-66
2.3849653309817e-68
1.9117053127707e-73
6.1334725874608e-75
0
0
0
0
0
0
-1.9775696455959e-32
-6.5266128493534e-31
-1.0620213309128e-29
-1.1357767954777e-28
-8.9784254788111e-28
-5.5943895240766e-27
-2.8610790466336e-26
-1.234781097195e-25
-4.5885590074269e-25
-1.4906346218624e-24
-4.2830600263875e-24
-1.0984955425983e-23
-2.5328719822873e-23
-5.2794246526258e-23
-9.9872386404086e-23
-1.7188449008819e-22
-2.6927665215238e-22
-3.8321704945136e-22
-4.9232788452361e-22
-5.6283640581138e-22
-5.5376142700265e-22
-4.2692187903964e-22
-1.5925321477762e-22
2.4671175088026e-22
7.5834405236955e-22
1.3167402145642e-21
1.8483028474021e-21
2.2807665749912e-21
2.5588767822751e-21
2.6552300631368e-21
2.5736104430034e-21
2.3446910691377e-21
2.0162420906114e-21
1.6412469517674e-21
1.2673113966581e-21
9.2968659773902e-22
6.4868737890026e-22
4.3089023575341e-22
2.7266804785173e-22
1.6446808626464e-22
9.4603321834047e-23
5.1912285321702e-23
2.7183491279756e-23
1.3586851256902e-23
6.4832916054718e-24
2.9539221993822e-24
1.2852056990794e-24
5.3399799295318e-25
2.1188645215405e-25
8.0287166388235e-26
2.9048948883746e-26
1.0034522294713e-26
3.3087479590646e-27
1.0411840949244e-27
3.1257993083278e-28
8.9497969752953e-29
2.4429109432649e-29
6.3539278103079e-30
1.5739384294366e-30
3.7109580786874e-31
8.3224071386124e-32
1.7740096737165e-32
3.5913031443032e-33
6.8983432163354e-34
1.2560332679108e-34
2.1654269150728e-35
3.5305733903062e-36
5.4365692951084e-37
7.894780761678e-38
1.0793921247551e-38
1.3869243628011e-39
1.6714046192498e-40
1.8848799771114e-41
1.9840730327931e-42
1.9438480948626e-43
1.7668174057121e-44
1.484373016272e-45
1.1478279647039e-46
8.1295001446479e-48
5.2434431001167e-49
3.0591136640969e-50
1.6013314002578e-51
7.4471492938494e-53
3.039524833513e-54
1.0719249361948e-55
3.2002506896593e-57
7.865022439078e-59
1.5277438383203e-60
2.1992346673093e-62
2.0858109519142e-64
9.7772450520911e-67
4.0142057777161e-72
1.267203352276e-73
3.6449314909051e-75
0
0
0
0
0
6.5651733435938e-34
-3.0102150423881e-31
-1.0107213863677e-29
-1.6349357747141e-28
-1.7299435235709e-27
-1.3518148895745e-26
-8.3300727006997e-26
-4.2177439598299e-25
-1.8047712397774e-24
-6.6608090441461e-24
-2.1532000098094e-23
-6.1702928304198e-23
-1.5824847328893e-22
-3.6604186622482e-22
-7.6839488449204e-22
-1.471170747941e-21
-2.5788999774645e-21
-4.1502589943633e-21
-6.140751099246e-21
-8.3530248378318e-21
-1.0422752872179e-20
-1.1863044771058e-20
-1.2170820883679e-20
-1.0970818442375e-20
-8.1501028870958e-21
-3.9311907178937e-21
1.1498513676602e-21
6.3594915745166e-21
1.0940835923701e-20
1.4289132503135e-20
1.6074580249048e-20
1.6280980949752e-20
1.5160265168046e-20
1.3129803131325e-20
1.0652233704025e-20
8.1342303904509e-21
5.8659194839358e-21
4.0046903236621e-21
2.5931932584432e-21
1.5950823642221e-21
9.3312657321214e-22
5.1968735634949e-22
2.7577176640223e-22
1.3952893337396e-22
6.7349237952176e-23
3.1027968438503e-23
1.3648316335204e-23
5.7335006879527e-24
2.3006209517403e-24
8.8183151404582e-25
3.2287628158748e-25
1.1291641566896e-25
3.7711741406551e-26
1.2025197037468e-26
3.6599251314229e-27
1.0628121238997e-27
2.9434529043025e-28
7.7706620954381e-29
1.9544065283907e-29
4.6800873166585e-30
1.0662784997475e-30
2.3095530574294e-31
4.751755249862e-32
9.2776907310828e-33
1.7172590870367e-33
3.0098721690959e-34
4.9892371800667e-35
7.8108412355593e-36
1.1531413238982e-36
1.6027436598999e-37
2.0933471077064e-38
2.5640408855117e-39
2.9384926061716e-40
3.1429084488371e-41
3.128236626654e-42
2.888137892161e-43
2.4642290442875e-44
1.9348506991552e-45
1.3911918524195e-46
9.1077677465462e-48
5.3924149467201e-49
2.8640606804767e-50
1.3512217974115e-51
5.5937325218279e-53
2.0005313245947e-54
6.0558815942319e-56
1.5088116800095e-57
2.9706978094831e-59
4.3339633670902e-61
4.1651244104886e-63
1.9780286949138e-65
5.550813208092e-71
1.7733728393013e-72
5.0346048283147e-74
1.2845367732274e-75
0
0
0
0
0
1.1154387731183e-32
-2.238579218164e-30
-7.7289193876525e-29
-1.248609735998e-27
-1.3112801709501e-26
-1.0151322973497e-25
-6.1948788005959e-25
-3.1069169809795e-24
-1.3173943404203e-23
-4.8201481173812e-23
-1.5453766217659e-22
-4.3935533466296e-22
-1.1181938960741e-21
-2.567143841504e-21
-5.3492981777132e-21
-1.0167532352163e-20
-1.7697333175174e-20
-2.8291131362604e-20
-4.1619198874607e-20
-5.6391697218612e-20
-7.0338822906274e-20
-8.0566351607521e-20
-8.425494178641e-20
-7.9498277845772e-20
-6.5973794096594e-20
-4.5176652494238e-20
-2.0112526842909e-20
5.4445674227728e-21
2.78684901726e-20
4.4474189410375e-20
5.3970456923421e-20
5.6497690547944e-20
5.3316605093428e-20
4.63034848548e-20
3.742828165008e-20
2.8353338094465e-20
2.0219744445098e-20
1.361654721937e-20
8.6789748587579e-21
5.2449400367939e-21
3.0094856937923e-21
1.6414497661953e-21
8.5186861882889e-22
4.2100889922748e-22
1.982866431663e-22
8.9051018813289e-23
3.8153870458831e-23
1.560110661029e-23
6.0898173263564e-24
2.2696193440739e-24
8.076510001654e-25
2.7440661830612e-25
8.9002499268671e-26
2.7551431278135e-26
8.1373185033927e-27
2.2921326196725e-27
6.1547750893461e-28
1.5745584567535e-28
3.835368687373e-29
8.8889721419647e-30
1.9586280451096e-30
4.0995102643992e-31
8.1428507520769e-32
1.5333057410007e-32
2.7339278814527e-33
4.6099935416033e-34
7.3411362426126e-35
1.10232703197e-35
1.5581484620131e-36
2.0694219603757e-37
2.5771194880416e-38
3.0023982638195e-39
3.26389659943e-40
3.3013212867695e-41
3.0967704491972e-42
2.6840600686744e-43
2.1403983302912e-44
1.5627359977566e-45
1.0386701727181e-46
6.2421266358043e-48
3.3645939992447e-49
1.6106359924849e-50
6.7641561033352e-52
2.4536985200603e-53
7.5325472484038e-55
1.9028953285345e-56
3.7982401018569e-58
5.6167334037869e-60
5.4705766310248e-62
2.632522873415e-64
5.6855476156219e-70
1.8385650569192e-71
5.2825669372245e-73
1.3343922717707e-74
2.9808269307949e-76
0
0
0
0
6.4310233189988e-44
9.4610427568504e-32
-1.0774580099358e-29
-3.8711974818765e-28
-6.2649172258828e-27
-6.5395192777912e-26
-5.0191135084356e-25
-3.0339107557611e-24
-1.5067525735095e-23
-6.3259831659388e-23
-2.2915185924036e-22
-7.2719187135545e-22
-2.0455699082415e-21
-5.1482402461886e-21
-1.1679687831798e-20
-2.4031085189169e-20
-4.506563723672e-20
-7.7341565931416e-20
-1.2187085933443e-19
-1.767689884527e-19
-2.3641423747679e-19
-2.9172868121286e-19
-3.3182472906743e-19
-3.4667777510072e-19
-3.2999494136715e-19
-2.8130463339163e-19
-2.0653178433817e-19
-1.1681209743074e-19
-2.5857147728593e-20
5.3342759879006e-20
1.1145157743317e-19
1.4445729894245e-19
1.5367224496758e-19
1.4430607101069e-19
1.2333705020983e-19
9.7507022926629e-20
7.200415361218e-20
4.9986459315054e-20
3.2767415981144e-20
2.0345551098518e-20
1.1991347069836e-20
6.7185936137036e-21
3.5820776161792e-21
1.8185850497301e-21
8.795951779845e-22
4.0545257032616e-22
1.7816958728111e-22
7.4657460257843e-23
2.9836816416623e-23
1.1374844430257e-23
4.1371495500729e-24
1.4356145942019e-24
4.7526706216469e-25
1.500873590392e-25
4.5202240470124e-26
1.297919073427e-26
3.5516454083816e-27
9.2574111128384e-28
2.2970631692031e-28
5.422346663212e-29
1.2167508935902e-29
2.5932574668652e-30
5.2445382463053e-31
1.0053810816652e-31
1.8247910261465e-32
3.1318492190051e-33
5.0755683884946e-34
7.755225421593e-35
1.1153004532193e-35
1.5068235238247e-36
1.9085535597618e-37
2.2610812133224e-38
2.4990794076055e-39
2.5694604716721e-40
2.4495489918359e-41
2.1572647301004e-42
1.7476339819242e-43
1.2959758015955e-44
8.7469353724725e-46
5.3369239258005e-47
2.9200303852156e-48
1.418634746074e-49
6.045669961602e-51
2.2253968126485e-52
6.9362495927641e-54
1.7849338042475e-55
3.6994373968192e-57
6.448321154597e-59
1.5211113717739e-60
8.9186806203204e-62
7.1159796098162e-63
5.479505841539e-64
3.9444782321004e-65
2.6475773083039e-66
1.652195689003e-67
1.0091291498086e-68
0
0
0
0
1.16294974744e-42
5.3366760821289e-31
-3.7391089627909e-29
-1.4234766189136e-27
-2.3162259871719e-26
-2.4065881833072e-25
-1.8322892195707e-24
-1.0971515504125e-23
-5.3938596862068e-23
-2.2406459407683e-22
-8.0268983717091e-22
-2.5176579868117e-21
-6.9946796481367e-21
-1.7371922824222e-20
-3.8856443006216e-20
-7.8756176438772e-20
-1.4540510086234e-19
-2.4565320093675e-19
-3.8130089805957e-19
-5.4572551041724e-19
-7.2236222927441e-19
-8.8619199377179e-19
-1.0081509034688e-18
-1.0612563768235e-18
-1.0269549982797e-18
-9.0051000203049e-19
-6.9429237366205e-19
-4.3740793090315e-19
-1.7025815720923e-19
6.5508659077122e-20
2.383420543057e-19
3.3460379463237e-19
3.5953208894073e-19
3.3169152423944e-19
2.7439280311168e-19
2.0820726222458e-19
1.4699861235849e-19
9.7532830789945e-20
6.1247730866503e-20
3.6578539922806e-20
2.0836593112154e-20
1.1336856347212e-20
5.8932062296874e-21
2.9258470080986e-21
1.386518365172e-21
6.2676694533215e-22
2.7013823232286e-22
1.1097830112233e-22
4.3451563020373e-23
1.6213600084874e-23
5.7659836377507e-24
1.9543308946989e-24
6.313107635391e-25
1.9434092800193e-25
5.7000056657158e-26
1.5923741531431e-26
4.2354226490723e-27
1.0720320672547e-27
2.5805433749565e-28
5.9033119566868e-29
1.2823480180203e-29
2.6426561043772e-30
5.1612117119279e-31
9.54203096521e-32
1.6678490732377e-32
2.7522681381338e-33
4.2812594667504e-34
6.2669887784678e-35
8.6165920871761e-36
1.1104446316077e-36
1.3382544044087e-37
1.5043216225348e-38
1.5727041290604e-39
1.5241959412265e-40
1.3643077928247e-41
1.1231003029678e-42
8.4611621834013e-44
5.8004550511573e-45
3.5940333593397e-46
1.9965687469511e-47
9.8473344871974e-49
4.2605815093968e-50
1.5934230015112e-51
5.0644675891649e-53
1.3527035506773e-54
3.1876737606171e-56
9.2119766411676e-58
5.3030899921822e-59
4.4099936032923e-60
3.6993103352619e-61
2.9237782653228e-62
2.1625319525576e-63
1.4932009172246e-64
9.5993468808507e-66
5.7283901840302e-67
3.3313403317224e-68
0
0
0
0
1.0378973336109e-41
2.2497299257237e-30
-9.8141995999158e-29
-4.0801844875663e-27
-6.7101194562646e-26
-6.9530294731857e-25
-5.2555845879176e-24
-3.1180021664628e-23
-1.5171296607195e-22
-6.232930147113e-22
-2.2069203136662e-21
-6.8369930521514e-21
-1.8747368178931e-20
-4.5916690002981e-20
-1.0120015470023e-19
-2.0196948078657e-19
-3.6698240828592e-19
-6.1004782033785e-19
-9.3173096583013e-19
-1.3118961661043e-18
-1.7064123357389e-18
-2.0510464751763e-18
-2.2745492528968e-18
-2.3193681462555e-18
-2.1618139092999e-18
-1.8201181086275e-18
-1.3460143490593e-18
-8.0810328459963e-19
-2.7844754128603e-19
1.7583212990847e-19
5.0226864791622e-19
6.7565314168291e-19
7.0556708254575e-19
6.3072599042754e-19
5.0191423434158e-19
3.6367413523019e-19
2.4392939094034e-19
1.5351362446323e-19
9.1648088403493e-20
5.2320614369157e-20
2.8695494023043e-20
1.5141734085613e-20
7.6798539576722e-21
3.7358706299444e-21
1.7386869450228e-21
7.7254687412363e-22
3.2722583393581e-22
1.3200630939265e-22
5.0696077577e-23
1.8532209052773e-23
6.4485502832411e-24
2.1360267568099e-24
6.7355505146209e-25
2.0217932852346e-25
5.7759718225098e-26
1.5700473282337e-26
4.0590175504891e-27
9.9751207572675e-28
2.3287436618068e-28
5.1605771374099e-29
1.084586508868e-29
2.1596543413002e-30
4.0697696783794e-31
7.2489686754497e-32
1.2187058254382e-32
1.9309400660325e-33
2.8783688453669e-34
4.0291577241581e-35
5.2852669770714e-36
6.4818506265501e-37
7.4129219986575e-38
7.8828200528114e-39
7.7688827460278e-40
7.0698648271966e-41
5.9155797041192e-42
4.5288728900212e-43
3.1543449377202e-44
1.9853231012139e-45
1.120144720918e-46
5.6112455543949e-48
2.4672358022827e-49
9.4022823771585e-51
3.080136653058e-52
8.9213312212001e-54
2.773935063117e-55
1.4201498576657e-56
1.1599373598326e-57
1.039328412777e-58
8.9301571727687e-60
7.2076819372435e-61
5.4461335148193e-62
3.8433019301603e-63
2.5263950122798e-64
1.5424398950617e-65
8.7178072510546e-67
4.7722591241936e-68
0
0
0
0
6.0955973140328e-41
7.5512832612967e-30
-1.9639693568035e-28
-9.4342249079368e-27
-1.5804725286895e-25
-1.6377931372715e-24
-1.2305149054516e-23
-7.2366344311201e-23
-3.4853776748687e-22
-1.416191959281e-21
-4.9570485139532e-21
-1.5179953853091e-20
-4.115756901465e-20
-9.9742889852994e-20
-2.17713027315e-19
-4.3064979295519e-19
-7.7574479806408e-19
-1.2772317970409e-18
-1.9265952764635e-18
-2.6642345403768e-18
-3.3731346504316e-18
-3.8949231943931e-18
-4.0707771923609e-18
-3.7997443127143e-18
-3.0993746111437e-18
-2.1318250993887e-18
-1.1443719289143e-18
-3.3631993010598e-19
2.3645545321071e-19
6.2879869593166e-19
8.9828082078326e-19
1.0471292338213e-18
1.0539746667667e-18
9.2886223330783e-19
7.2500389344639e-19
5.0861951182541e-19
3.2639651543254e-19
1.9525100565248e-19
1.1083373630228e-19
6.0534405944932e-20
3.2056156248476e-20
1.6479087787204e-20
8.1965946914127e-21
3.9244772906383e-21
1.7999201289249e-21
7.8786383278268e-22
3.2837299572656e-22
1.3015749147705e-22
4.9039265004777e-23
1.7561568523998e-23
5.978351965117e-24
1.9349419223906e-24
5.9547848271973e-25
1.7424914439296e-25
4.847495230995e-26
1.2816807611673e-26
3.2193649612447e-27
7.6778772177681e-28
1.7373526699263e-28
3.7269159833311e-29
7.5719647986038e-30
1.4554258200394e-30
2.6433803745336e-31
4.5302304153339e-32
7.3148949394325e-33
1.1109305196446e-33
1.5839487356263e-34
2.1157606142441e-35
2.6415468795071e-36
3.0746513638168e-37
3.3267737054641e-38
3.3352197435839e-39
3.0866816848458e-40
2.6259473572054e-41
2.0435450933301e-42
1.4464869639626e-43
9.2506731849345e-45
5.3031304017484e-46
2.7000896796102e-47
1.208650719167e-48
4.7198570000254e-50
1.6263851581019e-51
5.4686858707871e-53
2.4574353163421e-54
1.8202520507706e-55
1.6838678822491e-56
1.5575365097455e-57
1.3642490611622e-58
1.1216939263656e-59
8.6349639439561e-61
6.2091194208816e-62
4.1595930981365e-63
2.5885968245873e-64
1.4916427409035e-65
7.9300028238688e-67
4.0538580807764e-68
0
0
0
0
2.650230087699e-40
2.09936189444e-29
-2.8401334462595e-28
-1.7911528461774e-26
-3.0954324783804e-25
-3.2214579959821e-24
-2.410403195593e-23
-1.4065310154032e-22
-6.7094049093082e-22
-2.697934304069e-21
-9.3471721439999e-21
-2.8373398283544e-20
-7.6484352115304e-20
-1.8505561081686e-19
-4.0502709324637e-19
-8.0575906761647e-19
-1.4601053315436e-18
-2.4092846005265e-18
-3.6116862221476e-18
-4.9027828981422e-18
-6.0042543079231e-18
-6.6052148486168e-18
-6.4993628580806e-18
-5.6121209046228e-18
-4.0154977887398e-18
-2.2178828653484e-18
-1.2132075698818e-18
-1.5384481210264e-18
-2.4447451263936e-18
-2.6648402590049e-18
-1.7933509732997e-18
-4.6849511068003e-19
5.1785438889437e-19
8.8618934275139e-19
8.1259521015758e-19
5.7740214619536e-19
3.5517021741635e-19
2.0083257942285e-19
1.0842696894845e-19
5.7097493247363e-20
2.9537186198451e-20
1.4963456740053e-20
7.3634516427502e-21
3.4895567971342e-21
1.5818205275264e-21
6.8287731028759e-22
2.8008896781187e-22
1.0903755481896e-22
4.027970053448e-23
1.4122068119918e-23
4.7004560609647e-24
1.4856885003586e-24
4.4599535151845e-25
1.2716028067175e-25
3.4428973754934e-26
8.849326718093e-27
2.1582607237677e-27
4.99153380627e-28
1.0938724759266e-28
2.2693756247906e-29
4.4524149485808e-30
8.2511346867294e-31
1.4423609646567e-31
2.3747641645801e-32
3.6764008081974e-33
5.341578550534e-34
7.2687468547375e-35
9.2425137001548e-36
1.0953239803787e-36
1.206321302488e-37
1.2306583096964e-38
1.1586741703455e-39
1.0025345090152e-40
7.9329756630365e-42
5.7084087183151e-43
3.7108235799355e-44
2.1626175750717e-45
1.1203713209342e-46
5.1208258070826e-48
2.0686663343612e-49
7.7342988746434e-51
3.2291279176567e-52
2.0305376544014e-53
1.8235043390473e-54
1.7820829769492e-55
1.6843978687064e-56
1.5013604322225e-57
1.25583043262e-58
9.8351029038028e-60
7.1946920304369e-61
4.9034823784331e-62
3.1045826359624e-63
1.8201528083188e-64
9.8456745500213e-66
4.8937085703407e-67
2.3202108667056e-68
0
0
0
0
9.0986181606643e-40
4.9650561414684e-29
-2.1425982960955e-28
-2.7986304091569e-26
-5.1007654739371e-25
-5.3673263029163e-24
-4.0117654530085e-23
-2.3267041511717e-22
-1.1006272654459e-21
-4.3860557719739e-21
-1.5077746442137e-20
-4.5592948253134e-20
-1.2328275055812e-19
-3.017555165101e-19
-6.7282302407133e-19
-1.3668953311285e-18
-2.5198933026825e-18
-4.1873578712571e-18
-6.2259462928794e-18
-8.258859485512e-18
-9.8741057300467e-18
-1.0817348627694e-17
-1.0992230372469e-17
-1.0155155050702e-17
-8.974399914722e-18
-1.0730880909834e-17
-1.4227163684775e-17
-1.8800793381777e-17
-1.9005878225557e-17
-1.3163605265569e-17
-6.8651735784402e-18
-2.091190307891e-18
2.2382870483279e-19
8.7083972611392e-19
7.8390455399043e-19
5.2090872844828e-19
3.0096488724611e-19
1.6258947129228e-19
8.550325994715e-20
4.4543889204991e-20
2.298971080485e-20
1.1640148476906e-20
5.7112355140088e-21
2.6878241492078e-21
1.2050950476924e-21
5.1282206577049e-22
2.0678725056938e-22
7.8979327279608e-23
2.8577519791855e-23
9.8004766028856e-24
3.186959775924e-24
9.8301778879459e-25
2.876598779356e-25
7.9859789741107e-26
2.1029327746714e-26
5.2506266217689e-27
1.2423743094941e-27
2.7838564161668e-28
5.9023410210231e-29
1.1829005172962e-29
2.2382810759883e-30
3.9934688826095e-31
6.7082580744758e-32
1.0591823351157e-32
1.5690184215072e-33
2.1761325872078e-34
2.8193181535223e-35
3.4032117668589e-36
3.8165351727605e-37
3.9634621295086e-38
3.7975631779367e-39
3.3429630217719e-40
2.6906112173051e-41
1.9689405035277e-42
1.3015992965732e-43
7.7170947784954e-45
4.0745467128192e-46
1.9102701713464e-47
8.0964396180957e-49
3.4105100012547e-50
1.8250801736642e-51
1.4638681923645e-52
1.4525311047003e-53
1.4655136406987e-54
1.4107704681515e-55
1.2785229519807e-56
1.087145450228e-57
8.6543898040356e-59
6.4349054057206e-60
4.4574049265957e-61
2.8681821679272e-62
1.7089099612534e-63
9.3939768172454e-65
4.7448499202505e-66
2.1918803639598e-67
9.5733790894066e-69
0
0
0
0
2.5693057057173e-39
1.0180893056584e-28
2.7405296382744e-28
-3.5216801206787e-26
-7.0761863954569e-25
-7.6171916365778e-24
-5.7166758007627e-23
-3.304957865202e-22
-1.5538550573036e-21
-6.1517777750784e-21
-2.1063919529536e-20
-6.3886121625547e-20
-1.7516876559051e-19
-4.3958403048415e-19
-1.0105780174265e-18
-2.1103326088535e-18
-3.9549259294536e-18
-6.5772342201094e-18
-9.8053630043962e-18
-1.3523688401973e-17
-1.7635386988541e-17
-2.1444288386897e-17
-2.6115280181676e-17
-2.3750497317042e-17
-1.8390152630815e-17
-2.7734045689512e-17
-9.7144514654701e-17
-8.3266726846887e-17
0.0035508899485408
1.3097162243625e-16
-2.0358426411874e-17
-6.4775130155466e-18
6.470768690787e-19
7.514605903418e-19
5.6630188843103e-19
3.5017612312764e-19
1.9617787030658e-19
1.0552087532872e-19
5.6165637060373e-20
2.9785724484356e-20
1.5604124077009e-20
7.9609525514387e-21
3.9040896920932e-21
1.8238726735018e-21
8.0761117421298e-22
3.3820357933333e-22
1.3386854592256e-22
5.009839421402e-23
1.7736915716165e-23
5.9446229152219e-24
1.8871147791733e-24
5.6762037000537e-25
1.6179744131515e-25
4.3703597230125e-26
1.1183704409498e-26
2.7101087696183e-27
6.2151714161999e-28
1.347858138381e-28
2.7615155612606e-29
5.3392338334314e-30
9.7292988582911e-31
1.6684873191488e-31
2.6883840007922e-32
4.0624684182128e-33
5.7455219101149e-34
7.5878177758941e-35
9.3334446066273e-36
1.0662491657686e-36
1.1276179938462e-37
1.0999120054841e-38
9.8543446630318e-40
8.0702405327695e-41
6.0082193407046e-42
4.041259017854e-43
2.4399810387415e-44
1.3160329282828e-45
6.3704091155125e-47
2.885804234511e-48
1.4175776636194e-49
9.5928173800108e-51
9.0126889941469e-52
9.4665270847151e-53
9.7754683050111e-54
9.5715200042669e-55
8.8154324476556e-56
7.616611858406e-57
6.1602769452731e-58
4.6531704479579e-59
3.2740700385811e-60
2.1397855010181e-61
1.2947953559218e-62
7.2279096218613e-64
3.7070768161362e-65
1.7387530151431e-66
7.4184352167778e-68
2.963501963432e-69
0
0
0
0
6.1378613265881e-39
1.8354537292395e-28
1.4956808335676e-27
-3.274586317641e-26
-8.1269778677658e-25
-9.1576052121352e-24
-6.9656376110346e-23
-4.0352585946387e-22
-1.8931986774656e-21
-7.4770188167988e-21
-2.5644247314666e-20
-7.8684827925412e-20
-2.2119191976199e-19
-5.7465556078162e-19
-1.3675016834553e-18
-2.925541045061e-18
-5.5258152637659e-18
-9.1188850659818e-18
-1.374358787906e-17
-1.9987211203319e-17
-2.7310524373011e-17
-3.5562915513381e-17
-3.9940253836252e-17
-1.6388250629958e-17
-3.9898639947467e-17
0.19825332736642
0.70559422982535
0.96527791236398
0.97238157912513
0.74440458097685
0.29680990181565
2.6986911097958e-19
4.1525089917021e-19
3.9551024619656e-19
2.8760416492138e-19
1.7949102646761e-19
1.0370665083759e-19
5.8189001407143e-20
3.233193810707e-20
1.7741092842496e-20
9.487379899839e-21
4.8759522807834e-21
2.3838950942674e-21
1.1023077468815e-21
4.8084903122912e-22
1.9777158397379e-22
7.6729106050298e-23
2.8103479877678e-23
9.7263585217732e-24
3.1832066461884e-24
9.8571227546707e-25
2.889029841257e-25
8.0152047670875e-26
2.104676052477e-26
5.2290260949264e-27
1.2285524765587e-27
2.7276993060333e-28
5.7180039809447e-29
1.1305157758839e-29
2.1054999194445e-30
3.6886182194358e-31
6.0688071781272e-32
9.3602641174478e-33
1.3506330330418e-33
1.8191386680581e-34
2.281234129203e-35
2.6558894491297e-36
2.8614620170911e-37
2.8426199885024e-38
2.592971496967e-39
2.1615618066396e-40
1.637968043017e-41
1.1217473953606e-42
6.9059721278691e-44
3.8172665485209e-45
1.9246439789706e-46
9.5183607203858e-48
5.5652116687542e-49
4.5710383419916e-50
4.7491369837695e-51
5.176806330373e-52
5.4514150521753e-53
5.4259204068741e-54
5.0773608327436e-55
4.4564110604714e-56
3.6609327095274e-57
2.8083428662631e-58
2.0065160804978e-59
1.3314484428018e-60
8.1790422084505e-62
4.6345823634952e-63
2.4125524712365e-64
1.1483708202204e-65
4.9717372099217e-67
1.9456582125327e-68
7.0524114688337e-70
0
0
0
0
1.2662364081923e-38
2.9399503847737e-28
3.6719056487082e-27
-1.3812227704026e-26
-7.281839790467e-25
-9.0855176017535e-24
-7.1435212811416e-23
-4.1899449088653e-22
-1.9764983914433e-21
-7.8437664000767e-21
-2.7183250751216e-20
-8.5309723227913e-20
-2.4848397044823e-19
-6.7170395589985e-19
-1.6501052650628e-18
-3.5885324744814e-18
-6.799195748875e-18
-1.1255174975171e-17
-1.7405762541646e-17
-2.5789677883385e-17
-3.3069730137471e-17
-1.5258079005354e-16
-1.4475216455134e-16
3.4694469519536e-17
0.36372043630563
0.9884560310975
0.99999999999991
0.99999999999986
0.99999999999986
0.99999999999989
0.99945470883447
0.50957918316101
1.2931757707256e-19
1.3872532809702e-19
1.1185986075018e-19
7.6571767170151e-20
4.8021085415688e-20
2.894619438751e-20
1.6999132915783e-20
9.6579097092076e-21
5.2473951610708e-21
2.70126919812e-21
1.3103329111791e-21
5.9760158933831e-22
2.5618755392146e-22
1.0331430734774e-22
3.9239612088759e-23
1.4052973859322e-23
4.7505241545561e-24
1.5170232636952e-24
4.5788160372971e-25
1.3066003617076e-25
3.5250971402828e-26
8.9897577479389e-27
2.1661601357861e-27
4.9286610991565e-28
1.0580597670427e-28
2.1409180041924e-29
4.0783369417265e-30
7.3040145505839e-31
1.227870515681e-31
1.9341182227046e-32
2.8489406064438e-33
3.9154160200843e-34
5.0080836587611e-35
5.9447434930062e-36
6.5278984366675e-37
6.6072280327397e-38
6.1388342050153e-39
5.2114258730465e-40
4.0216595946526e-41
2.8065712612583e-42
1.764848803161e-43
1.0039799311513e-44
5.3303848685002e-46
2.9376717436621e-47
2.0477384510046e-48
1.9489813066606e-49
2.1634106676538e-50
2.4241190697368e-51
2.5988488458326e-52
2.6287556928342e-53
2.4989908156198e-54
2.227845531762e-55
1.8586414077718e-56
1.4477420602858e-57
1.0501617825182e-58
7.0737162565316e-60
4.410363133293e-61
2.5361298001182e-62
1.3395785029063e-63
6.4691403408335e-65
2.8411146263723e-66
1.1277343232662e-67
4.0165090041754e-69
1.3089043443171e-70
0
0
0
0
2.2914907391738e-38
4.216760183705e-28
6.7547539788429e-27
2.4551553439463e-26
-3.964068559617e-25
-6.8273519163276e-24
-5.8609978645589e-23
-3.5694072245386e-22
-1.7218222337244e-21
-6.9692349230353e-21
-2.4793025497638e-20
-8.0898729751412e-20
-2.4709103132354e-19
-6.9677975203852e-19
-1.7579234070087e-18
-3.8577604371806e-18
-7.3561394319032e-18
-1.2564860649254e-17
-2.0413876535523e-17
-3.0466452137923e-17
-3.485746701504e-17
-1.2479976395751e-16
-1.9164724375217e-17
0.21652636828935
0.99301765778264
0.99999999999988
0.99999999999979
0.99999999999974
0.99999999999974
0.99999999999979
0.99999999999988
0.998252022902
0.33571347777522
3.0012282873381e-20
3.6134616351536e-20
2.9681278079402e-20
2.079791092209e-20
1.3547995159913e-20
8.351968773651e-21
4.8595387187399e-21
2.6564092327843e-21
1.3599606178312e-21
6.5144949225819e-22
2.9216707758519e-22
1.228550753738e-22
4.8516292646393e-23
1.8022178990487e-23
6.3059029112463e-24
2.0805392231684e-24
6.4777952768829e-25
1.9041652534431e-25
5.285545223967e-26
1.3853284270067e-26
3.4273728812811e-27
7.9999761297749e-28
1.7604273276307e-28
3.6487667944999e-29
7.1151392253665e-30
1.3036296429916e-30
2.2407537374516e-31
3.6069982568564e-32
5.4269209273293e-33
7.6146985584793e-34
9.9393780251546e-35
1.2035166145481e-35
1.3475776423451e-36
1.3902953250055e-37
1.3162978965511e-38
1.1385078016516e-39
8.9529623517778e-41
6.3733367999268e-42
4.1025381151778e-43
2.4149048537605e-44
1.3670721095422e-45
8.5306732890084e-47
6.9897459483567e-48
7.4119759005345e-49
8.6176041930589e-50
9.8781991979608e-51
1.0773173813113e-51