/*--------------------------------*- C++ -*----------------------------------*\
  =========                 |
  \\      /  F ield         | OpenFOAM: The Open Source CFD Toolbox
   \\    /   O peration     | Website:  https://openfoam.org
    \\  /    A nd           | Version:  7
     \\/     M anipulation  |
\*---------------------------------------------------------------------------*/
FoamFile
{
    version     2.0;
    format      ascii;
    class       volScalarField;
    location    "3.3";
    object      alpha.water;
}
// * * * * * * * * * * * * * * * * * * * * * * * * * * * * * * * * * * * * * //

dimensions      [0 0 0 0 0 0 0];

internalField   nonuniform List<scalar> 
6000
(
0
0
0
0
0
0
0
0
0
0
0
0
0
0
0
0
0
0
0
0
0
0
0
0
0
0
0
0
0
0
0
0
0
0
0
0
0
0
0
0
0
0
0
0
0
0
0
0
0
0
0
0
0
0
0
0
0
0
0
0
0
0
0
0
0
0
0
0
0
0
0
0
0
0
0
0
0
0
0
0
0
0
0
0
0
0
0
0
0
0
0
0
0
0
0
0
0
0
0
0
0
0
0
0
0
0
0
0
0
0
0
0
0
0
0
0
0
0
0
5.0837129299203e-211
2.3914034264052e-210
6.5636805672334e-210
1.3239699531655e-209
6.8427820191885e-222
4.3196393296063e-191
1.5479868809284e-190
2.5162183654045e-203
2.3915649207831e-204
1.0072426079639e-190
2.0144882177443e-190
6.2247570647101e-190
1.190083077161e-203
1.2004334827475e-190
4.5561218952462e-190
1.495028138529e-189
4.4807617776496e-189
6.4348210604296e-203
9.8475886116842e-204
4.0209853160238e-190
9.8752514476148e-190
1.1561946143273e-204
4.0459370668292e-190
0
6.3763843198012e-191
1.2458993688872e-207
2.1857663182376e-191
3.7498684718741e-191
6.2294968444358e-208
1.105272284732e-191
1.557374211109e-208
2.5766048114327e-192
3.6742477862243e-192
7.7868710555448e-209
1.0195522528396e-192
9.733588819431e-210
4.1639236310593e-195
4.6181698453567e-194
4.5017848289868e-209
1.0543213048851e-194
2.8470747296836e-208
2.2774316964509e-195
4.1844166029571e-207
2.6808827655882e-196
1.1082936087596e-207
3.5166144652808e-197
1.9405188284089e-197
4.1073840821165e-206
2.2463291370321e-198
2.978155630283e-198
1.911533306815e-198
2.2050332409433e-198
2.6143023131836e-204
3.8003906689746e-199
4.2376795106858e-205
3.8788157331629e-200
8.1213980573762e-205
6.9430518327674e-201
3.1827775982776e-201
1.7143400158632e-202
6.8752016194007e-202
4.0740358883288e-203
2.1323116052038e-202
1.4046620186863e-202
1.6286618271404e-202
1.4935315873704e-202
7.6502016692495e-203
7.1568491420956e-203
3.6297717988425e-203
3.02219384277e-203
1.4534476521187e-203
7.7348865976991e-204
5.9088740874013e-204
2.6995948671891e-204
1.9744475868889e-204
8.7775562180837e-205
6.1986937556592e-205
3.8219283783936e-205
1.6416776214865e-205
1.1099067672529e-205
8.8206075001894e-206
0
0
0
0
0
0
0
0
0
0
0
0
0
0
0
0
0
0
0
6.9778783613739e-156
3.8341547532101e-152
5.3113830356219e-164
5.0218721171234e-141
5.8685006481268e-125
9.2497581943663e-125
3.1230807911683e-141
1.7928292758895e-124
9.0334136134148e-125
-1.3215726759059e-130
5.9727911189683e-125
1.2679689903453e-124
4.2670890007212e-124
0
1.3791242625393e-125
3.0896158309544e-125
5.3298546571019e-125
1.8120148668017e-123
0
3.0204153927658e-125
1.9107882905945e-122
7.8459634417129e-140
1.503401150359e-119
3.9209736039292e-120
0
5.7490888400365e-122
4.1217791951365e-124
7.9333777670197e-122
8.1671498218065e-122
1.0593745934583e-121
8.9778054097672e-122
9.8495270372062e-124
1.329466153128e-121
2.0197484140136e-121
1.6870795080663e-121
1.3333893958548e-121
8.7483762220201e-123
1.707898768602e-122
0
3.6092414159061e-127
-3.2033329522929e-143
1.1936408133943e-128
1.779974225581e-125
0
8.6444865107198e-128
0
0
1.3614171530378e-128
0
2.2503797244608e-133
0
3.4746470092247e-132
-5.0052077379576e-148
1.4578618646323e-131
9.1671063847591e-136
0
-4.0019666361844e-150
1.8111197990518e-134
2.0359778771573e-138
0
1.9924102245369e-137
0
1.3088090980987e-137
2.442606589468e-154
2.1634403137394e-142
2.3944205605405e-139
1.8496028858546e-139
7.750945798062e-140
-9.2569188701754e-157
1.2457011393197e-144
1.2218700860232e-141
0
9.7520540242541e-143
-1.8635609355683e-159
1.5076487451078e-144
1.6590584429471e-144
9.8537985345206e-145
3.7163934818401e-145
1.4276711757819e-146
1.7956021163146e-147
1.3917501562743e-146
0
0
0
0
0
0
0
0
0
0
0
0
0
0
0
0
0
-7.2384099324127e-94
-1.7257383337595e-92
-2.4447443972804e-91
-2.4729343614995e-90
-1.8771384688796e-89
-1.1339792892294e-88
4.3223040692547e-76
2.8070427567486e-76
6.8545242340051e-76
-7.1536014699695e-92
-8.3993188436963e-82
3.8352124283357e-94
-6.8755471563176e-87
-3.0201371044289e-81
-1.9838603553008e-93
-4.6615628438639e-93
2.32114669913e-93
0
2.2090988784333e-69
8.7650996859973e-67
6.6066642999302e-67
1.8112334660806e-67
2.9761988196214e-68
0
0
2.2402755590843e-67
9.2158009562717e-67
1.6961211658855e-66
1.8193892512237e-66
1.5654146180103e-66
8.5901387629152e-67
2.7147089783788e-66
-1.286889397367e-83
2.6046641402708e-83
1.9053478524441e-65
3.4574233424746e-64
-3.0887071808869e-69
0
0
1.2100848231471e-62
3.3068912316028e-62
1.1312823474789e-61
2.6128275104973e-61
5.345716915857e-61
1.3767211476017e-60
2.6685906753775e-60
6.3627363801709e-60
1.2560894199654e-59
2.2676690949434e-59
4.9137740573996e-59
7.8898623584817e-59
1.3900798553579e-58
1.885502060538e-58
2.0338842932743e-58
2.3250973040351e-58
2.2033146929696e-58
2.3080186464343e-58
2.1694326879725e-58
1.9446637183004e-58
1.6964595285155e-58
1.2068085683289e-58
6.8237854099915e-59
2.427978009796e-59
3.2448930364871e-60
1.4900538532928e-61
6.6563805717015e-62
2.4684694687654e-62
2.217319523284e-63
9.3024954346826e-64
1.2003432381209e-64
1.1498360893584e-65
6.144305116512e-66
2.2420506138125e-66
1.44564582499e-67
2.0334877251622e-68
1.1586827149636e-68
4.0118540170375e-69
1.1589739925083e-69
3.0722539808742e-70
7.8412409762381e-71
2.0120759694541e-71
4.2779171149528e-72
2.1115318237394e-72
0
0
0
0
0
0
0
0
0
4.937497422532e-79
4.6597201463266e-77
1.9533017388732e-75
6.0573261151175e-74
1.2883139625658e-72
2.0978864181751e-71
3.8256106438509e-70
5.7180914221808e-69
9.0613533027928e-68
1.1389769043417e-66
1.0146803319864e-65
1.2042703914479e-64
1.1703252947085e-63
9.6526941440852e-63
6.0192723906146e-62
3.9906124145528e-61
3.714207763824e-60
3.1001857884165e-59
4.2807507004162e-59
1.7401092977231e-59
0
2.8446175336219e-57
3.293471203028e-59
0
5.7320701843686e-56
0
2.0894220280249e-54
4.4305712332924e-53
1.3382550660354e-52
1.1574223432186e-51
2.6855468945644e-51
2.6852958777777e-51
2.6990411500769e-51
4.5354064849074e-53
7.4182674105094e-67
7.7348102667103e-53
2.2881306755944e-53
9.0235333726715e-54
9.4550398129767e-67
1.9913841319216e-53
7.3164418469808e-49
2.6405768560468e-50
3.1534678509699e-50
2.0686242702383e-64
3.7399598590422e-47
2.0523935433155e-47
0
8.0462279867153e-48
3.613378086423e-62
1.9271877914533e-48
2.8302649460717e-61
4.7245387230382e-61
2.3880165313517e-49
2.8930739995576e-60
4.8561964539281e-50
1.3560326762627e-59
2.0685135637879e-59
1.9282363335631e-51
8.4868212435797e-59
3.79468403304e-52
1.9999773617461e-58
2.167435959396e-58
7.9485289798528e-52
6.1537914596903e-56
1.1868752262869e-52
2.3210089340906e-58
2.0786240112378e-58
2.5701556482702e-53
2.0820035469811e-57
7.3726208090766e-59
7.9822473796655e-59
4.3896337588452e-60
8.6222497823504e-61
1.6509359961592e-56
1.6170144055107e-56
9.0992403834863e-63
5.4117971203111e-56
1.8924426828157e-58
7.6576052959279e-65
9.185155452036e-59
9.6472960884639e-59
7.6705419730327e-67
1.4409111096315e-67
1.0175157428132e-59
4.7288069623317e-60
2.2023920040968e-60
2.2327620261364e-60
5.2121493940556e-61
4.4379476927717e-61
1.1683765213346e-61
1.0387663563068e-61
0
0
0
0
0
0
0
9.4277288668861e-70
1.4061993750993e-67
1.031906430382e-65
4.974279749453e-64
1.7748634158896e-62
5.0089244614396e-61
1.1658101000653e-59
2.3006442169514e-58
3.9224987077429e-57
5.8559793418204e-56
7.7397637013067e-55
9.1541566873603e-54
9.8051563609721e-53
9.640929586667e-52
8.8283912346454e-51
7.6313333492511e-50
6.2910132881592e-49
4.972748453405e-48
3.7715318292802e-47
2.7374750668769e-46
1.8939281076615e-45
1.2441471420541e-44
7.7368235304009e-44
4.5454892970909e-43
2.5204391467544e-42
1.3185904698401e-41
6.5096260383241e-41
3.0340615742584e-40
1.3359898819822e-39
5.5618535991017e-39
2.1908566548232e-38
8.1719181208603e-38
2.8885180226936e-37
9.6822320119065e-37
3.0797436781573e-36
9.3017143240034e-36
2.6691588036807e-35
7.280950986976e-35
1.8890013523134e-34
4.6636677938671e-34
1.0962018605746e-33
2.4543411171117e-33
5.2368610965557e-33
1.0653647150178e-32
2.0672238845976e-32
3.8269509700375e-32
6.7594957917936e-32
1.1387966298716e-31
1.8285548138957e-31
2.7941113270514e-31
4.0521900473357e-31
5.5489066515906e-31
7.0906981563916e-31
8.2510937993453e-31
8.6397141697141e-31
8.6134930217154e-31
8.4346397302453e-31
7.9704088839849e-31
7.0814871478426e-31
5.8049161161696e-31
4.2999866163234e-31
2.8149834985577e-31
1.5885144415152e-31
7.5440636266308e-32
2.9767183541756e-32
9.9019445937798e-33
2.9236407741646e-33
8.2257019507466e-34
2.3248955904647e-34
6.7140146050374e-35
1.9710286269475e-35
5.8315687267456e-36
1.7308639138778e-36
5.1494937122039e-37
1.5366827745709e-37
4.6020674451312e-38
1.3827791567141e-38
4.1641032389398e-39
1.2548320082838e-39
3.7776034770639e-40
1.1343659952923e-40
3.3936968199746e-41
1.0106636397663e-41
2.994453044632e-42
8.8240062489373e-43
2.5856759726532e-43
7.533729719153e-44
2.1823891307743e-44
6.289301311451e-45
1.7953070105702e-45
5.249161100249e-46
1.1972176154579e-46
7.4303558173142e-47
0
0
0
0
0
0
8.3965377462797e-70
1.8793304452331e-67
1.8647810635353e-65
1.1484610838603e-63
5.0442660847833e-62
1.705700180946e-60
4.6628173776486e-59
1.065331453023e-57
2.0817268553619e-56
3.5374743009132e-55
5.2952204278275e-54
7.0555549535312e-53
8.4400563121819e-52
9.1342216103293e-51
9.0205057807808e-50
8.2164030761855e-49
6.9899640597263e-48
5.6228456022978e-47
4.3177951212684e-46
3.1819675000552e-45
2.2532930273501e-44
1.5310003115899e-43
9.9516187335829e-43
6.1678055574768e-42
3.6338010590537e-41
2.0301200148958e-40
1.073630427175e-39
5.3689750209491e-39
2.5374795939877e-38
1.1332927300216e-37
4.7840158578752e-37
1.909508141193e-36
7.2102195785629e-36
2.5770534097222e-35
8.7239487890032e-35
2.7989477219325e-34
8.5163675770119e-34
2.4591646706073e-33
6.7437489527589e-33
1.7575747643903e-32
4.3566191583237e-32
1.0278497653542e-31
2.3096926496975e-31
4.9463245894503e-31
1.0099843613978e-30
1.9668725927623e-30
3.6535397130737e-30
6.4727079171921e-30
1.0932947120968e-29
1.7593604574608e-29
2.6939371430887e-29
3.9160083684573e-29
5.3796146490926e-29
6.9106068492547e-29
8.1168091248173e-29
8.582077908777e-29
8.5724763982984e-29
8.4243332098424e-29
8.0083579402077e-29
7.1861642763463e-29
5.9695761330049e-29
4.5000316330835e-29
3.0141365421578e-29
1.7523650875485e-29
8.6435037532587e-30
3.567523793401e-30
1.2439783454234e-30
3.8263663516814e-31
1.1081344869085e-31
3.1907699440394e-32
9.3464010963472e-33
2.7833364342169e-33
8.3675921698601e-34
2.5278635239745e-34
7.6645415301631e-35
2.3330656295676e-35
7.1312589340976e-36
2.1874412794904e-36
6.7236126351124e-37
2.0668684824551e-37
6.3414070714862e-38
1.9384812100091e-38
5.8963262264599e-39
1.7831682500115e-39
5.3592647286932e-40
1.6004366175566e-40
4.7486428309866e-41
1.3999487398058e-41
4.1007349670509e-42
1.1943070713223e-42
3.4434049103025e-43
1.0168210413847e-43
2.3340408930757e-44
1.4706893161817e-44
0
0
0
0
0
3.8875732932388e-70
1.1595758080538e-67
1.4939371461245e-65
1.1517498976853e-63
6.1586402579944e-62
2.4813446818988e-60
7.9418117426625e-59
2.0952680018841e-57
4.6793166748456e-56
9.0179092064427e-55
1.5217892387431e-53
2.2751341992474e-52
3.0413075317841e-51
3.6629623661382e-50
4.0016605853172e-49
3.9899204676653e-48
3.6537015551957e-47
3.0980104319492e-46
2.4603035847784e-45
1.8544817009448e-44
1.3410350024316e-43
9.3455557067109e-43
6.2679031870971e-42
4.0290956681313e-41
2.4725185406616e-40
1.4446263786198e-39
8.0240782140139e-39
4.233262711217e-38
2.119883614372e-37
1.0070207324167e-36
4.5351126152622e-36
1.9351213706937e-35
7.8194512697864e-35
2.9909660305985e-34
1.0826306556414e-33
3.7076507005123e-33
1.2012527591037e-32
3.6822244282273e-32
1.0681052894866e-31
2.9330034039846e-31
7.6290802818637e-31
1.8814137252356e-30
4.4044360933757e-30
9.8038308790291e-30
2.0790123560881e-29
4.2093773345596e-29
8.1542456290746e-29
1.5137188143089e-28
2.6945798140648e-28
4.5971111113211e-28
7.5035128557851e-28
1.1684895829759e-27
1.7296244630546e-27
2.420740670492e-27
3.1721809647338e-27
3.8134551869521e-27
4.1177205803957e-27
4.1352112172617e-27
4.0819110206465e-27
3.9107873608121e-27
3.5534459536263e-27
2.9980547166812e-27
2.3038627502202e-27
1.5801560802847e-27
9.4622017349238e-28
4.8405496775072e-28
2.0853585333801e-28
7.608557432895e-29
2.4374862755868e-29
7.27624647287e-30
2.1381868287667e-30
6.3600442004719e-31
1.9222330393232e-31
5.8732073861524e-32
1.8063701117993e-32
5.5840061641644e-33
1.7348673749091e-33
5.4162290819602e-34
1.6974080770573e-34
5.3295269218584e-35
1.6724022440193e-35
5.2322435094448e-36
1.6287918540079e-36
5.0383104515156e-37
1.5474768594845e-37
4.7180168480143e-38
1.4278490793036e-38
4.2897808508825e-39
1.2796278498429e-39
3.7902043146197e-40
1.1155951770185e-40
3.248793837624e-41
9.6895720700903e-42
2.2380644930319e-42
1.4323689397188e-42
0
0
0
0
0
2.928464211007e-68
6.2969948923894e-66
6.5355357552845e-64
4.3590484333039e-62
2.1086374445612e-60
7.916716087228e-59
2.4098022972553e-57
6.1350022008971e-56
1.336189542155e-54
2.5317145641072e-53
4.2283480136774e-52
6.2901500754912e-51
8.4035255059495e-50
1.0152105418461e-48
1.1159851340412e-47
1.121944862734e-46
1.0360924508436e-45
8.8331048896331e-45
7.0015879313096e-44
5.2151807854072e-43
3.7025793192689e-42
2.5415864239431e-41
1.7020040636599e-40
1.1133371385976e-39
7.0840689625235e-39
4.357510594926e-38
2.5752213033715e-37
1.4542302237158e-36
7.8106970138856e-36
3.9753502449013e-35
1.9118988589835e-34
8.6711129511996e-34
3.7034057260493e-33
1.4881595725384e-32
5.6229578056598e-32
1.9969762882733e-31
6.6639520362604e-31
2.0887931551079e-30
6.1473331455424e-30
1.6977991992204e-29
4.3978702352646e-29
1.067858731872e-28
2.4297308275275e-28
5.181800372907e-28
1.0371693693469e-27
1.9541269019851e-27
3.4833703533477e-27
5.9170174558052e-27
9.6576940731353e-27
1.5262696086351e-26
2.3467930160477e-26
3.5123418357265e-26
5.0948323470957e-26
7.1023491761972e-26
9.392126828822e-26
1.1528551235929e-25
1.2771216477716e-25
1.2956556403502e-25
1.2839245327938e-25
1.2400975321467e-25
1.1420413329922e-25
9.7960875067291e-26
7.6813223216189e-26
5.3973594208516e-26
3.3279941797552e-26
1.76360921623e-26
7.9155545744946e-27
3.0166984097956e-27
1.0060961483712e-27
3.0990619480463e-28
9.309475478608e-29
2.8155413661407e-29
8.6425827023578e-30
2.6849025636486e-30
8.4102822620787e-31
2.6520747999564e-31
8.4156706729059e-32
2.6857882519482e-32
8.6072829136876e-33
2.7629840134276e-33
8.8572990234893e-34
2.8273924131914e-34
8.9671921073107e-35
2.821636454843e-35
8.8032791631821e-36
2.7229863016034e-36
8.3518680886909e-37
2.5408385489945e-37
7.6691896128089e-38
2.2970862202718e-38
6.8333429194869e-39
2.0100883043392e-39
6.0556429437404e-40
1.4072010451872e-40
9.152441026925e-41
0
0
0
0
9.3394124317636e-79
1.0698751700743e-66
2.0143992798869e-64
1.8743871721847e-62
1.1458654765096e-60
5.1733577457094e-59
1.839542351493e-57
5.366296327444e-56
1.321836602242e-54
2.8071894425744e-53
5.2202706913782e-52
8.6064754746073e-51
1.2699797836794e-49
1.6901158142491e-48
2.0416260376621e-47
2.2507298959999e-46
2.2749349224317e-45
2.1169819851626e-44
1.819994335931e-43
1.4498578250952e-42
1.076202135611e-41
7.5386760282898e-41
5.0926847229273e-40
3.4034866257421e-39
2.2916379757586e-38
1.5587956129411e-37
1.0588658387479e-36
7.0540346707387e-36
4.5285064629409e-35
2.7635724488695e-34
1.5882619673188e-33
8.5455822899798e-33
4.2895273120259e-32
2.0048587503073e-31
8.7167094392462e-31
3.5242742598081e-30
1.3250373772206e-29
4.6329538003418e-29
1.5064830130136e-28
4.5552304067427e-28
1.2806216178753e-27
3.3462342402347e-27
8.1218240515681e-27
1.8290676710042e-26
3.8148101123427e-26
7.3490143151554e-26
1.304020857317e-25
2.1288187687042e-25
3.2083043775369e-25
4.5122053278283e-25
6.031280494208e-25
7.829088294323e-25
1.0055634869932e-24
1.2913801695008e-24
1.6568791091451e-24
2.0970346156534e-24
2.5525239087708e-24
2.8765826691491e-24
2.960953457981e-24
2.9436886321137e-24
2.8651537563786e-24
2.6750361405739e-24
2.3341533562742e-24
1.8690477551783e-24
1.3462303793559e-24
8.5483134853824e-25
4.6901441246272e-25
2.190683150111e-25
8.7110709229903e-26
3.02357597911e-26
9.6189758337602e-27
2.9582023629921e-27
9.1084113886859e-28
2.8419681345642e-28
8.9817100431282e-29
2.8669033523392e-29
9.227644653044e-30
2.9930100896868e-30
9.7730336500742e-31
3.2058235877039e-31
1.0530824947399e-31
3.4515567284431e-32
1.124950678826e-32
3.6368253027964e-33
1.1645354212575e-33
3.6915488131134e-34
1.1586380756151e-34
3.6020763163713e-35
1.1097586252744e-35
3.38971247527e-36
1.0267801237811e-36
3.0873399552849e-37
9.1742609456605e-38
2.79210320065e-38
6.5264568059082e-39
4.3164110131001e-39
0
0
0
0
3.1371424716924e-77
2.5340007679589e-65
4.4515394756997e-63
3.8912540928642e-61
2.2521783792129e-59
9.69899776829e-58
3.3124661975495e-56
9.3396562317959e-55
2.2360176621584e-53
4.6386369746564e-52
8.4653514899067e-51
1.3757088904148e-49
2.0090264211283e-48
2.6559499978791e-47
3.198812118914e-46
3.5260804867059e-45
3.572489172271e-44
3.3412890727693e-43
2.894221545123e-42
2.3242572185993e-41
1.7313592506061e-40
1.2045820936077e-39
8.0135694798636e-39
5.3132322250054e-38
3.6582507440052e-37
2.6505269906747e-36
1.9777235703629e-35
1.4639110835113e-34
1.0400850162443e-33
6.9437854747088e-33
4.3074699902867e-32
2.4707030415195e-31
1.3083850906397e-30
6.3973916009731e-30
2.8903184379188e-29
1.2077622971204e-28
4.672234405946e-28
1.6746655290308e-27
5.5649004967144e-27
1.7150655206015e-26
4.9029183774734e-26
1.300048273297e-25
3.1959063427567e-25
7.2745967604721e-25
1.5301730893038e-24
2.9669503401135e-24
5.284456929358e-24
8.5980666151957e-24
1.269128041518e-23
1.6949667519012e-23
2.0716078347652e-23
2.3838646019801e-23
2.6703847174347e-23
2.9882044023657e-23
3.3920789656741e-23
3.9168220619329e-23
4.5338580008193e-23
5.0694042123919e-23
5.2730864603721e-23
5.2584633777613e-23
5.1523579626771e-23
4.8679515521658e-23
4.3214232394417e-23
3.535366164181e-23
2.6119310810936e-23
1.7080912513906e-23
9.6944799300593e-24
4.7044222558817e-24
1.9484828024059e-24
7.0339571668169e-25
2.313216947085e-25
7.2965497954336e-26
2.2912603356465e-26
7.2758775097193e-27
2.3412517056321e-27
7.6205330500457e-28
2.505522859354e-28
8.3140508020631e-29
2.7803439432894e-29
9.3448075566555e-30
3.1444036895378e-30
1.0546710767369e-30
3.5124343581878e-31
1.1582133733364e-31
3.7758314491969e-32
1.2165608308419e-32
3.8754536378743e-33
1.2214581139994e-33
3.8115764367012e-34
1.1783151206146e-34
3.6101078904812e-35
1.0973239612025e-35
3.2944277009288e-36
1.0130342493673e-36
2.3814340098683e-37
1.6027090573583e-37
0
0
0
0
4.6248838481769e-77
4.3835961304289e-64
7.3949174189059e-62
6.2210192675963e-60
3.4751217167328e-58
1.4488776285244e-56
4.8056685929967e-55
1.3200148980751e-53
3.0878199773508e-52
6.2769012495896e-51
1.1257267167251e-49
1.8031380180759e-48
2.6030440398902e-47
3.4118810724992e-46
4.0869727609367e-45
4.4931737834971e-44
4.5511810444542e-43
4.2656341620215e-42
3.7124619023671e-41
3.0042892190333e-40
2.255359027229e-39
1.5696427510025e-38
1.0310740346636e-37
6.728807705152e-37
4.6557358239025e-36
3.5089189875113e-35
2.7914936798735e-34
2.2190055556078e-33
1.687600025027e-32
1.1974724057748e-31
7.8317344344232e-31
4.6991621700334e-30
2.5853695688236e-29
1.3062805850131e-28
6.0754496363523e-28
2.6072366170998e-27
1.0344755252716e-26
3.8005996156079e-26
1.2941963469995e-25
4.086790907125e-25
1.1968172179989e-24
3.2494992833075e-24
8.1739595442916e-24
1.9023994582865e-23
4.0886210762054e-23
8.0937229558415e-23
1.4703268431751e-22
2.4361385032095e-22
3.6454827569511e-22
4.8687593365959e-22
5.7840929856249e-22
6.2144992292606e-22
6.3093101197163e-22
6.3619727031463e-22
6.4600622001522e-22
6.6658411862176e-22
7.0233752451585e-22
7.4662320025656e-22
7.7226328676792e-22
7.7182690529032e-22
7.6016075703648e-22
7.242607933709e-22
6.5135029850339e-22
5.4190357789643e-22
4.089566819819e-22
2.746135716239e-22
1.6098680015345e-22
8.1149826226738e-23
3.5038514617042e-23
1.3175777786397e-23
4.4877283603253e-24
1.454486861801e-24
4.6645083462756e-25
1.5089438066685e-25
4.947561257022e-26
1.6433553046313e-26
5.5236941072276e-27
1.8768740825933e-27
6.4345522700847e-28
2.2182216113505e-28
7.6536522081963e-29
2.6296600900865e-29
8.9566693062184e-30
3.0147113934722e-30
1.0012213154549e-30
3.2803853752031e-31
1.0610164735887e-31
3.3911848262134e-32
1.0720778229253e-32
3.3549810255985e-33
1.0398484412389e-33
3.1957006257729e-34
9.69478710758e-35
3.0126595303699e-35
7.1210547127869e-36
4.8806802782843e-36
0
0
0
0
2.6111542460737e-78
5.9138414500905e-63
9.7292880683776e-61
7.9868022623096e-59
4.3579265411758e-57
1.7769200700226e-55
5.7715812055882e-54
1.5546764291186e-52
3.5714339550236e-51
7.1399903966936e-50
1.2613407409379e-48
1.9934904204364e-47
2.8449566449772e-46
3.6939417022357e-45
4.3934437059403e-44
4.8075572593505e-43
4.8579096294094e-42
4.5512739194171e-41
3.9677700518757e-40
3.2267142598122e-39
2.4431049945726e-38
1.7114568538745e-37
1.1165205973786e-36
7.128339094476e-36
4.8500459584688e-35
3.6905713319787e-34
3.0371112412588e-33
2.5235719426901e-32
2.0082492937427e-31
1.4880881971075e-30
1.0143060385554e-29
6.3328398147912e-29
3.619166681621e-28
1.8950645480544e-27
9.1094398706649e-27
4.0297103121969e-26
1.6445211250313e-25
6.2043513441797e-25
2.1672508099914e-24
7.0160123161443e-24
2.1058285771166e-23
5.8598744668707e-23
1.5109579899842e-22
3.6061817478957e-22
7.9536022478052e-22
1.6172509303664e-21
3.0213670120138e-21
5.158632590228e-21
7.9750244682835e-21
1.0975661620307e-20
1.3115996889896e-20
1.3714629409818e-20
1.3628731573028e-20
1.324680202606e-20
1.2449247539766e-20
1.1331136930636e-20
1.0401172182509e-20
9.9782235179081e-21
9.8256540244914e-21
9.686084035231e-21
9.439602656209e-21
8.9538603158719e-21
8.1022833681547e-21
6.8434824527735e-21
5.2810627848746e-21
3.6472953484502e-21
2.2109589407062e-21
1.1581693398499e-21
5.2138827546414e-22
2.0434192973041e-22
7.2176859875142e-23
2.4076111307014e-23
7.8968296075735e-24
2.6050750978278e-24
8.709962897115e-25
2.954294692425e-25
1.0159167838012e-25
3.5376997902036e-26
1.2445431930717e-26
4.4050436909044e-27
1.5601411796769e-27
5.4966637175459e-28
1.9166098915714e-28
6.5908978708713e-29
2.2316584829332e-29
7.4399975767914e-30
2.4445328097999e-30
7.9262271985306e-31
2.5393506229916e-31
8.0464316949751e-32
2.5234892987699e-32
7.8427593427472e-33
2.4046421860918e-33
7.5531484488343e-34
1.7947465786064e-34
1.2538723361786e-34
0
0
0
0
-9.5880731744094e-95
6.4862094029141e-62
1.0502677766242e-59
8.4854003522985e-58
4.5577800737428e-56
1.8301119473441e-54
5.8566294708197e-53
1.5551720021317e-51
3.5237958483783e-50
6.9528765548101e-49
1.2131520927045e-47
1.8952348370397e-46
2.6763295779981e-45
3.4427430957231e-44
4.0625515242106e-43
4.4187888158359e-42
4.4469544305042e-41
4.1565488993349e-40
3.6210163642117e-39
2.9493480866474e-38
2.2468581557732e-37
1.5893758614024e-36
1.0385243530808e-35
6.4895503060662e-35
4.2553860682789e-34
3.1663916941522e-33
2.6211633654108e-32
2.2303951760628e-31
1.8301384477376e-30
1.4016338737513e-29
9.8877894862865e-29
6.3984246756737e-28
3.7961667046394e-27
2.0665977450739e-26
1.03331691466e-25
4.7503179958499e-25
2.0106134342928e-24
7.8497379215647e-24
2.8324535029069e-23
9.4618200713487e-23
2.929297364289e-22
8.4081055401609e-22
2.2367365702868e-21
5.5085066639039e-21
1.2536867529538e-20
2.6298204628717e-20
5.0664009625622e-20
8.9178539205023e-20
1.4212481786889e-19
2.0126348307546e-19
2.4495750734716e-19
2.5636159868986e-19
2.5402608266868e-19
2.4402560683011e-19
2.2194487502515e-19
1.881446882852e-19
1.5292711098125e-19
1.2693881816565e-19
1.1285052877223e-19
1.0565533592462e-19
1.0031019129569e-19
9.4061754488451e-20
8.5201939404423e-20
7.2845354787598e-20
5.7422763400055e-20
4.0807053465306e-20
2.5608224869205e-20
1.3956672035405e-20
6.5573108619653e-21
2.6808336869393e-21
9.8296790295071e-22
3.3784159618499e-22
1.1344016182403e-22
3.8189572594355e-23
1.3027676884342e-23
4.5149058995048e-24
1.5894284006437e-24
5.676617834588e-25
2.0509701075297e-25
7.4605330593408e-26
2.7150979417338e-26
9.8197938180897e-27
3.5092096235816e-27
1.234238756516e-27
4.2648561682122e-28
1.4479675798148e-28
4.836103069925e-29
1.5915860924531e-29
5.1693928363178e-30
1.6591084898596e-30
5.2663286488696e-31
1.6555875447911e-31
5.1314220124705e-32
1.629641766658e-32
3.8916568488799e-33
2.7742198118895e-33
0
0
0
1.5483035891845e-89
3.2413488846308e-75
5.9519912451678e-61
9.5414935017752e-59
7.6296069772939e-57
4.0554081708131e-55
1.6113815199195e-53
5.1030980996794e-52
1.3411728466806e-50
3.0081040367947e-49
5.8761654986035e-48
1.0153019169742e-46
1.571091765534e-45
2.1984756494884e-44
2.8040727908157e-43
3.2831836322315e-42
3.5474910127114e-41
3.5517366784971e-40
3.3073895843853e-39
2.8742987880547e-38
2.33866251726e-37
1.7858349876332e-36
1.2741280861778e-35
8.400807321557e-35
5.1862838391779e-34
3.244238620908e-33
2.2856928647236e-32
1.8447359782948e-31
1.5769337665483e-30
1.3201180299216e-29
1.0382898421712e-28
7.5472517686538e-28
5.0453211866897e-27
3.1009621277951e-26
1.753746175321e-25
9.1360987059621e-25
4.3898284153109e-24
1.9471698104012e-23
7.9762996682738e-23
3.0194074533138e-22
1.0573569395469e-21
3.4284412624787e-21
1.0294968607112e-20
2.8607898773693e-20
7.3441847114555e-20
1.7375095014091e-19
3.7760711750325e-19
7.5067064628328e-19
1.3575687946527e-18
2.2128565287115e-18
3.1860277376299e-18
3.9070556627333e-18
4.0860690941006e-18
4.0401324250511e-18
3.8505531231973e-18
3.4313546296595e-18
2.7846792585266e-18
2.0817192837242e-18
1.5197860838417e-18
1.1860821336308e-18
1.0216101369266e-18
9.3077970166611e-19
8.5682941321921e-19
7.7311915182944e-19
6.6650765169001e-19
5.3536921045218e-19
3.9107031167832e-19
2.5407379607626e-19
1.4416836662516e-19
7.075821893807e-20
3.0208723066971e-20
1.151174205806e-20
4.0812334939653e-21
1.4041150626502e-21
4.8263597366671e-22
1.6804350833647e-22
5.952552521821e-23
2.1462774929306e-23
7.8665812401969e-24
2.921237688746e-24
1.0930517473509e-24
4.0917669382402e-25
1.5209486404875e-25
5.5774368580996e-26
2.0088629533512e-26
7.092403021167e-27
2.4547604378449e-27
8.3412060086179e-28
2.7881364248095e-28
9.1853223309586e-29
2.9871206263174e-29
9.599715870204e-30
3.0535088218801e-30
9.5696072499768e-31
3.0736032782113e-31
7.3743623624056e-32
5.3700703035108e-32
0
0
0
2.3548091480923e-86
7.2802009270668e-74
4.6661472459511e-60
7.434930548082e-58
5.9067577197206e-56
3.118400406242e-54
1.2304002020772e-52
3.8687116863516e-51
1.0093928815885e-49
2.2473483624414e-48
4.3575454394111e-47
7.4730844221188e-46
1.1477205395257e-44
1.5940663151451e-43
2.0183445177091e-42
2.3464010029619e-41
2.518663467187e-40
2.5074258406953e-39
2.3240698122271e-38
2.0124813428774e-37
1.6329929978886e-36
1.245852160434e-35
8.92857722087e-35
5.9525042953485e-34
3.6796682757693e-33
2.2121287592849e-32
1.4417462549737e-31
1.091468712444e-30
9.1314886403803e-30
7.70708893451e-29
6.1953390970498e-28
4.6290419819284e-27
3.1901541267248e-26
2.0256817118765e-25
1.187137252552e-24
6.4365038697279e-24
3.2338726802362e-23
1.5082739451815e-22
6.5396469621356e-22
2.633130415941e-21
9.8167221869897e-21
3.380020715469e-20
1.0731025922039e-19
3.1375278615834e-19
8.4347892184961e-19
2.0801373500469e-18
4.6910156943417e-18
9.6333008087917e-18
1.7906065909031e-17
2.9831236021798e-17
4.3576426133026e-17
5.362288361087e-17
5.5894555034196e-17
5.5122549861062e-17
5.2081076823319e-17
4.5490361592858e-17
3.5566566368151e-17
2.489142016939e-17
1.6344801387673e-17
1.1220358142684e-17
8.7586649053429e-18
7.5817325960929e-18
6.8267806660928e-18
6.1233590817201e-18
5.3110395360949e-18
4.337197211392e-18
3.2505461855371e-18
2.1836319773136e-18
1.2892345093395e-18
6.6106371523875e-19
2.9499724505063e-19
1.1703639347456e-19
4.2887709594038e-20
1.5142952797549e-20
5.3193841484034e-21
1.8910491245028e-21
6.8479117990465e-22
2.529471972755e-22
9.518249272474e-23
3.6351061027386e-23
1.4002825745272e-23
5.3975040701277e-24
2.0645256458156e-24
7.7795780660285e-25
2.873628306962e-25
1.0380739669505e-25
3.667409087027e-26
1.2691782091289e-26
4.3123816297688e-27
1.4419087195769e-27
4.7535882431047e-28
1.5472420843608e-28
4.9811447191588e-29
1.5788758000118e-29
5.1301870124818e-30
1.2361919449336e-30
9.2074481576217e-31
0
0
0
2.2893675980211e-86
8.2771800485518e-73
3.1747518424033e-59
5.0421278011847e-57
3.9909649503767e-55
2.0983711603831e-53
8.2427730231958e-52
2.5796074015606e-50
6.6975237071467e-49
1.4835382819459e-47
2.861268579655e-46
4.8801060536061e-45
7.4521668951183e-44
1.0289574422787e-42
1.2950528440664e-41
1.4963511630469e-40
1.5965274833771e-39
1.5804534595315e-38
1.4574589030194e-37
1.2565527109969e-36
1.015802828622e-35
7.7269247004262e-35
5.5388917836693e-34
3.7213106510938e-33
2.3229560591985e-32
1.3703472353002e-31
8.274758012126e-31
5.6628473989593e-30
4.4499962260681e-29
3.7042690124285e-28
3.0188604973835e-27
2.3142882307805e-26
1.6436319659828e-25
1.0772117857902e-24
6.52991779875e-24
3.6755950841278e-23
1.928358210078e-22
9.4506528113018e-22
4.3272077723257e-21
1.852283104391e-20
7.3965694253647e-20
2.7362642827985e-19
9.3039095265644e-19
2.8922798769157e-18
8.1971396827855e-18
2.1141062844664e-17
4.9501888633118e-17
1.0485434549139e-16
1.9981113836928e-16
3.3906363806626e-16
5.0096678425131e-16
6.1778937736193e-16
6.4195997280438e-16
6.317152114549e-16
5.9237248897585e-16
5.0858724422632e-16
3.8548454022783e-16
2.5580433124488e-16
1.5396644553601e-16
9.3996006269027e-17
6.6171041487725e-17
5.4114603995572e-17
4.7611951109009e-17
4.2466510516093e-17
3.7047276520688e-17
3.0725342566591e-17
2.3588547399033e-17
1.6356715551773e-17
1.0033752321451e-17
5.3714903500953e-18
2.5071700200386e-18
1.0378459910371e-18
3.9432129013096e-19
1.4329795277391e-19
5.1539588523799e-20
1.8724613235917e-20
6.9341048555103e-21