/*--------------------------------*- C++ -*----------------------------------*\
  =========                 |
  \\      /  F ield         | OpenFOAM: The Open Source CFD Toolbox
   \\    /   O peration     | Website:  https://openfoam.org
    \\  /    A nd           | Version:  7
     \\/     M anipulation  |
\*---------------------------------------------------------------------------*/
FoamFile
{
    version     2.0;
    format      ascii;
    class       surfaceScalarField;
    location    "3.3";
    object      alphaPhi0.water;
}
// * * * * * * * * * * * * * * * * * * * * * * * * * * * * * * * * * * * * * //

dimensions      [0 3 -1 0 0 0 0];

internalField   nonuniform List<scalar> 
11840
(
0
0
0
0
0
0
0
0
0
0
0
0
0
0
0
0
0
0
0
0
0
0
0
0
0
0
0
0
0
0
0
0
0
0
0
0
0
0
0
0
0
0
0
0
0
0
0
0
0
0
0
0
0
0
0
0
0
0
0
0
0
0
0
0
0
0
0
0
0
0
0
0
0
0
0
0
0
0
0
0
0
0
0
0
0
0
0
0
0
0
0
0
0
0
0
0
0
0
0
0
0
0
0
0
0
0
0
0
0
0
0
0
0
0
0
0
0
0
0
0
0
0
0
0
0
0
0
0
0
0
0
0
0
0
0
0
0
0
0
0
0
0
0
0
0
0
0
0
0
0
0
0
0
0
0
0
0
0
0
0
0
0
0
0
0
0
0
0
0
0
0
0
0
0
0
0
0
0
0
0
0
0
0
0
0
0
0
0
0
0
0
0
0
0
0
0
0
0
0
0
0
0
0
0
0
0
0
0
0
0
0
0
0
0
0
0
0
0
0
0
0
0
0
0
0
0
0
0
0
0
0
0
0
0
0
0
0
2.5414108904323e-213
1.2689231471047e-213
1.1957017132026e-212
5.9785085660129e-213
3.2818402836138e-212
1.6409201417955e-212
6.620981106274e-212
3.3150159149223e-212
1.2038147465963e-212
5.4171663596697e-212
2.1598196648031e-193
1.0799098324016e-193
7.3043735820493e-193
1.9099435006537e-193
1.3280679240098e-193
5.9763056580392e-193
2.4146689528149e-194
1.0866010287663e-193
4.4121451329764e-195
-1.9946305628295e-192
8.9532809677525e-193
0
2.7665586954267e-192
-1.1719883680617e-213
5.0301067189579e-193
2.2635480235309e-192
6.0021674137374e-193
3.0010837068687e-193
2.0249430645539e-192
0
6.6445695045734e-192
0
1.9914496789554e-191
0
3.6208175981009e-192
1.6293679191453e-191
6.58330472382e-193
2.9624871257189e-192
1.7871045848995e-192
0
4.3890006433844e-192
0
7.9800011697897e-193
3.5910005264054e-192
1.7981942519241e-192
0
3.2694440944074e-193
1.4712498424834e-192
3.1881921599006e-193
1.5940960799503e-193
5.796713018001e-194
2.6085208581005e-193
9.7257254805781e-194
5.0438297849737e-196
1.6666082097218e-193
0
3.0301967449488e-194
1.363588535227e-193
4.9123212654757e-194
0
8.9314932099557e-195
4.0191719444801e-194
1.1451576939701e-194
0
1.6329990160997e-194
0
2.9690891201812e-195
1.3360901040816e-194
4.5313433459539e-195
0
8.2388060835525e-196
3.7074627375987e-195
1.4979647424641e-196
5.9080566148766e-196
2.0525199312696e-196
0
3.7318544204902e-197
1.6793344892206e-196
4.6858724661561e-197
0
8.5197681202847e-198
3.8338956541276e-197
1.0121918650893e-197
0
1.8403488456326e-198
8.2815698052633e-198
1.3404413827941e-198
6.7022069139706e-199
2.4371661505717e-199
1.0967247677351e-198
1.7583072326404e-199
8.7915361632019e-200
9.7025941420445e-200
4.8512970710222e-200
1.7641080395964e-200
7.9384860960364e-200
1.1231645685161e-200
5.6158228425804e-201
1.3236247245702e-200
0
9.5576665340751e-201
4.7788332670375e-201
9.8001477375256e-201
0
1.7818546020125e-201
8.0182934230103e-201
1.6890625195443e-201
0
3.0710391868484e-202
1.3819591587228e-201
1.9394078665815e-202
9.6970393329072e-203
3.526522192859e-203
1.5867725588254e-202
3.0858008145633e-203
0
1.4145678214567e-203
0
3.0515252282364e-204
1.0303183495338e-203
3.0556451641781e-204
0
7.2517838812253e-205
2.4484955688856e-204
9.4769404675725e-205
0
7.0233100934313e-205
3.5116550467157e-205
7.2384970095127e-205
0
6.6379181660909e-205
0
3.9149732150142e-205
2.316976129065e-205
3.1808218409314e-205
0
1.8148858994213e-205
9.0744294971065e-206
1.3431972634533e-205
0
7.2685334693196e-206
3.6394475695642e-206
3.8674432988495e-206
1.9337216494248e-206
2.6261662610673e-206
0
1.3497974335945e-206
6.7489871679728e-207
8.7753226083949e-207
0
4.3887791972628e-207
2.1943939515151e-207
2.7549750025152e-207
0
1.6986348348416e-207
0
8.2083881074325e-208
4.1041940537163e-208
4.9329189655686e-208
0
2.2051519523078e-208
0
0
0
0
0
0
0
0
0
0
0
0
0
0
0
0
0
0
0
0
0
0
0
0
0
0
0
0
0
0
0
0
0
0
0
0
0
0
3.488939180687e-158
1.7444695903435e-158
1.9170773766051e-154
9.5853868830254e-155
1.7427976150947e-154
1.7427976151053e-155
0
1.0043744234233e-143
3.6305351343962e-127
0
4.6259417014072e-127
1.9427896135844e-126
4.6259417014072e-127
0
8.1887451802598e-127
4.2396378708381e-127
1.1812320524489e-127
-9.2992796230181e-127
1.5068098621943e-127
2.1241520073662e-128
4.4212862681747e-127
1.4228848335692e-128
9.214130201743e-127
3.2957483280816e-127
2.1193772603169e-126
1.0596879191313e-126
1.058939951776e-127
2.5374723405163e-126
1.6017639782609e-127
8.0392279653215e-128
1.7947066082805e-127
7.980019884956e-128
3.5812865307018e-127
0
8.6672880210711e-126
0
2.7790467782911e-127
8.389383343242e-126
4.2914691610847e-127
0
4.1940204462521e-125
0
3.5114529539212e-125
6.8256749233093e-126
5.2702915934822e-122
3.8420979110637e-122
2.1544407612047e-122
0
4.5334213320414e-124
2.1091065478843e-122
3.6483984651493e-124
0
3.5659628812466e-124
0
3.5753217567328e-124
0
3.9826328169264e-124
0
5.0352115351003e-124
0
3.8564367608492e-124
2.1677690387422e-124
5.5239752847995e-124
2.9221055065195e-125
5.9363872366353e-124
0
9.4772403036584e-124
0
7.7663491405602e-124
4.076894882711e-124
5.9746388280234e-124
3.3013582301728e-124
7.0559853393127e-125
4.6692713509692e-124
9.8681314379296e-125
0
3.0713565519095e-126
9.5609957827387e-125
3.0716675474983e-126
0
9.652718476136e-128
2.975140362737e-126
9.6537464421205e-128
0
8.6447486235028e-128
0
3.0426169786753e-129
8.3404869256352e-128
2.995429566262e-129
0
5.4462355750217e-130
2.4508060087598e-129
8.5697066603186e-131
4.5892649089898e-130
6.8385212578604e-131
0
2.1287401494831e-132
6.6256472429121e-131
2.1284539947461e-132
0
4.1547002939093e-134
2.086906991807e-132
4.1243323126734e-134
0
4.1243323126734e-134
0
9.0790341229734e-135
0
9.0769533174815e-135
0
1.650355148633e-135
7.4265981688485e-135
6.7439310535744e-137
1.5829158380972e-135
2.0348643190573e-137
0
2.0343607473222e-137
0
7.8523559155625e-139
1.9558371881665e-137
7.3601870572332e-139
0
1.0387005129642e-139
6.321486544269e-139
6.9846858733744e-140
0
1.7665158737453e-141
6.8080342859999e-140
1.7659534769304e-141
0
1.1205269174593e-141
0
6.1167014591296e-142
0
3.8387058200574e-142
0
9.7694997594065e-144
3.7410108224633e-142
9.7658633591117e-144
0
6.0811874700483e-144
0
8.3432542909225e-145
5.2468620409561e-144
5.3196970454352e-145
0
1.5690318432591e-146
5.1627938611093e-145
1.1181184472733e-146
0
6.20877580092e-147
0
3.0713454442425e-147
0
1.2158335041439e-147
0
5.4803549645891e-149
8.7549571934159e-148
4.872058176381e-149
0
0
0
0
0
0
0
0
0
0
0
0
0
0
0
0
0
0
0
0
0
0
0
0
0
0
0
0
0
0
0
0
0
0
0
0
-3.6192049662063e-96
-1.8096024831032e-96
-8.6286916687973e-95
-4.3143458343987e-95
-1.2223721986402e-93
-6.1118609932011e-94
-1.2364671807497e-92
-6.1823359037487e-93
-9.385692344398e-92
-4.692846172199e-92
-5.6698964461471e-91
-2.8349482230735e-91
2.2355650424081e-78
2.1590421387736e-78
1.5335004875287e-78
2.3317655098755e-78
3.4506020621773e-78
1.3817869688151e-78
6.191772076322e-79
2.8314248047595e-78
1.123706232493e-79
5.067054012106e-79
5.4344580133072e-81
1.06936165236e-79
3.7260180392361e-81
1.7084398898785e-81
3.9261846205718e-82
3.3221588556852e-81
1.2080575919925e-82
2.7181270285792e-82
2.1964687455724e-83
9.8841071743521e-83
2.8171174591151e-84
1.9147569996613e-83
1.1764620783389e-84
1.6406553807761e-84
1.6729168708761e-71
8.3312247525206e-72
4.5220867314816e-69
4.2366089002383e-69
3.006922325215e-69
5.1465235340788e-69
4.7370394967798e-70
2.2255236904125e-69
4.2889786055925e-70
5.2760079084084e-70
7.9064210412774e-71
3.4983365014648e-70
7.1992622561271e-72
7.1864948156646e-71
2.0457487333703e-69
1.9447254799385e-69
7.1186523173335e-69
5.6979063392899e-69
9.4909336931104e-69
9.1571026845095e-69
9.6569941727997e-69
1.0403511359691e-68
6.5669271514651e-69
6.0604042317314e-69
4.7277921037931e-69
5.220417875362e-69
1.5382794585466e-68
1.4451414901155e-68
1.3943829960829e-69
1.3988411589383e-68
2.5427575577125e-70
1.1401072403117e-69
1.9583203319768e-67
4.9783650939001e-68
1.9983908274951e-66
2.1597563833291e-66
3.6249505088543e-67
1.6359575507532e-66
4.8574018605629e-68
3.139210322798e-67
1.7488496003532e-68
1.5739646403179e-67
1.0383666846833e-64
3.0385816786432e-65
2.7286617496968e-64
2.1308054021485e-64
8.7477025938134e-64
5.723928237144e-64
1.9418557833332e-63
1.548790529436e-63
4.0074116692662e-63
3.1790448645178e-63
9.9972323741997e-63
7.275361573285e-63
1.9691773183387e-62
1.5792043109594e-62
4.588770121489e-62
3.3615378071361e-62
8.8833932718007e-62
7.3566157399584e-62
1.6151770716252e-61
1.3328525550751e-61
3.3379768321158e-61
2.5902484772007e-61
5.3166199419063e-61
4.5714930734699e-61
8.734971125162e-61
7.3026274784841e-61
1.0728513392953e-60
1.0564169558029e-60
1.1415034614941e-60
1.1539499095674e-60
1.2166382420527e-60
1.2166380142534e-60
1.1789042716004e-60
1.2571729638404e-60
1.2141285894985e-60
1.2141272700201e-60
1.1253841802371e-60
1.2322432455454e-60
9.7558962293439e-61
1.1048008606933e-60
8.0040263599735e-61
8.9243060434469e-61
5.156271346879e-61
6.8352837158546e-61
2.4371259730769e-61
3.9476556512123e-61
6.4272490107561e-62
1.556115607285e-61
9.0820192676368e-63
3.6757751356292e-62
1.4347518698237e-63
7.1300956416573e-63
3.6963623318953e-64
9.5373772552374e-64
9.1700679662593e-65
2.463471667762e-64
1.6077086961983e-65
7.2199170771467e-65
3.8721773875641e-66
1.0773757361047e-65
8.0198631571011e-67
2.8199120356912e-66
1.3162447907602e-67
6.5047534604381e-67
3.4182651711819e-68
8.7273246655811e-68
8.18893838698e-69
2.2329706533067e-68
1.5198412090098e-69
6.4329795259638e-69
2.4919461864824e-70
1.2375622725777e-69
6.45781537062e-71
1.6564119609839e-70
1.6689006333379e-71
4.1262604651754e-71
4.261772885744e-72
1.0496909141253e-71
1.0787343168313e-72
2.6675062349636e-72
2.7236277637696e-73
6.7384966031733e-73
6.6987620490067e-74
1.7111877098435e-73
1.9912065952751e-74
3.9765065388561e-74
1.6263632622954e-74
0
0
0
0
0
0
0
0
0
0
0
0
0
0
0
0
0
0
5.1554828350016e-81
2.5973340182634e-81
4.8657369232882e-79
2.4989226004634e-79
2.0255246286711e-77
1.0433571135623e-77
6.1861215505168e-76
3.2178364036282e-76
1.3014730936758e-74
6.9338070095142e-75
2.1071467725503e-73
1.125327307403e-73
3.8401922845342e-72
2.0431875921603e-72
5.7530494517097e-71
3.1083618438073e-71
8.9957674743695e-70
4.8212435415673e-70
1.1057700266601e-68
6.1288836005499e-69
9.8819860453398e-68
5.4293505030687e-68
1.1711732382199e-66
6.4466002898947e-67
1.1250693407666e-65
6.3279056930727e-66
9.007284909259e-65
5.099119879473e-65
5.5722068344778e-64
3.2398877148532e-64
3.7688517278661e-63
2.1414404380238e-63
3.5504047491139e-62
1.9933095811899e-62
2.0542300543559e-61
1.650557567839e-61
2.2285876138783e-61
2.3608564210386e-61
1.009758078447e-61
1.2134879791829e-61
5.4986146096089e-62
4.5989661748608e-62
1.4510997246249e-59
1.0554233911253e-59
2.7429709236551e-60
1.1397671100486e-59
1.3562905615249e-60
1.3866803621302e-60
2.7963427841463e-58
1.5293682346872e-58
1.7570293524457e-58
1.0393134317006e-58
1.813924003509e-56
6.9331359972484e-57
3.6911152520411e-55
2.1207239520995e-55
1.1687671496716e-54
8.9722936434979e-55
9.35977604177e-54
6.0293813284306e-54
1.4167922665809e-53
1.5556325851708e-53
1.4218637284113e-53
1.4407872265341e-53
6.6275194968056e-54
1.4199062522365e-53
2.8410127359058e-54
4.7750944980725e-54
2.0510820261621e-55
2.6359045332896e-54
3.9661424332438e-55
0
2.1871648857657e-55
5.1278190243075e-55
4.5879764075109e-56
1.8042200721172e-55
4.5879764075116e-56
1.925927305287e-69
9.2621126043469e-56
0
1.7442693393843e-51
1.710569414459e-51
3.1815734819357e-52
1.109052325802e-51
4.2057489293655e-52
9.486778918733e-52
3.72592310257e-52
4.7982582679558e-53
1.2745437853324e-49
8.2107331894033e-50
1.0958285554834e-49
5.4738221262688e-50
2.1209805381012e-50
8.8373050167325e-50
3.5383292263703e-50
0
6.4818649478869e-51
2.8901427315817e-50
9.2275672611719e-51
0
7.3070075250216e-52
8.4968665086742e-51
7.3070075251e-52
0
9.6271677633964e-52
0
1.7504580625914e-52
7.8767097012392e-52
2.1582290641702e-52
0
3.9241678766459e-53
1.7658122784983e-52
7.1348663866891e-54
3.2106812701956e-53
8.5699214288899e-54
0
1.5581703987536e-54
7.011752190406e-54
1.8171725936739e-54
0
2.9036689478945e-55
1.5268080824121e-54
2.9036935276524e-55
0
5.3584692389105e-55
0
5.3586850457193e-55
0
5.6833054714082e-55
0
9.7253202780289e-56
4.7107979548494e-55
1.7686250343573e-56
7.9569075390125e-56
1.758061776049e-56
0
1.7581521946928e-56
0
5.8142759256601e-58
1.7000630477982e-56
5.8156917973012e-58
0
5.3458952685905e-59
5.2814024759683e-58
5.3464417247334e-59
0
7.3523762662073e-59
0
7.3406023565907e-59
0
7.3406081935842e-59
0
3.5767216707413e-59
0
3.5602508749916e-59
0
7.6004143886933e-61
3.4842467836602e-59
6.8954297405474e-61
0
6.0566894227586e-61
0
3.7625503186026e-62
5.6804344427589e-61
3.7625504189311e-62
0
2.5941216393301e-62
0
1.7818697215993e-62
1.2446030555722e-62
1.1983254491867e-62
3.1115076389306e-63
4.9890940542781e-63
6.2230152778611e-63
3.0414277289594e-63
1.5557538194653e-63
1.1305699301872e-63
1.166815364599e-63
5.6540150030975e-64
3.1601249457889e-64
3.6462980143717e-64
0
0
0
0
0
0
0
0
0
0
0
0
0
0
9.9724740169566e-72
4.990456816709e-72
1.4783463325272e-69
7.4387828266378e-70
1.0779931555245e-67
5.4579983483127e-68
5.1627240191609e-66
2.6312809134217e-66
1.8299045742e-64
9.3907394427547e-65
5.1294802141584e-63
2.6509614457103e-63
1.1856691965373e-61
6.1719456087829e-62
2.3233024873905e-60
1.2183794970053e-60
3.9320686454258e-59
2.0779509039388e-59
5.8254339604104e-58
3.1032066159977e-58
7.6387930299727e-57
4.102734693279e-57
8.9632466673236e-56
4.8538426537457e-56
9.5271942005214e-55
5.2001702172472e-55
9.3015121174688e-54
5.1137533833792e-54
8.4645789026136e-53
4.6829233289591e-53
7.2774809745984e-52
4.0477224783892e-52
5.9704854902257e-51
3.3363871644264e-51
4.6973623812205e-50
2.6368288221553e-50
3.5449717461918e-49
1.9995353182787e-49
2.5586870850717e-48
1.4510825770538e-48
1.7590344313809e-47
1.0037949847646e-47
1.1473370861631e-46
6.5932843151574e-47
7.0791060327939e-46
4.0996535256166e-46
4.1239660098832e-45
2.4083553425856e-45
2.2661321378347e-44
1.3352646332829e-44
1.1742952657908e-43
6.9846251677138e-44
5.7396659662231e-43
3.4476095142959e-43
2.6475107916787e-42
1.6065678606111e-42
1.1532632068519e-41
7.0724877200627e-42
4.7477902733968e-41
2.943494887886e-41
1.8487159583421e-40
1.1590762188203e-40
6.8140102762657e-40
4.3217102310299e-40
2.3791078635316e-39
1.526932029094e-39
7.874286098497e-39
5.1157918554155e-39
2.4721890030901e-38
1.6263917987591e-38
7.3670683231509e-38
4.909398556141e-38
2.0849847116242e-37
1.4079174741501e-37
5.6071896621515e-37
3.8380698931379e-37
1.4336754934159e-36
9.9509736722247e-37
3.4869245807167e-36
2.455039072283e-36
8.0712348556132e-36
5.7664757502431e-36
1.7789378899359e-35
1.2901448409434e-35
3.7352345936723e-35
2.7507777157495e-35
7.4749597705291e-35
5.591952383729e-35
1.4262435281725e-34
1.0842644854666e-34
2.5951441396084e-34
2.0057946006883e-34
4.5028369248115e-34
3.540281415752e-34
7.4467431704185e-34
5.9602409102136e-34
1.1725748770859e-33
9.5636474379557e-34
1.7544929649744e-33
1.4603597472705e-33
2.4855242786455e-33
2.1164315615567e-33
3.3077886293158e-33
2.8959086046416e-33
4.0588286380625e-33
3.6960784963618e-33
4.4706785257862e-33
4.2933603043643e-33
4.5333979807558e-33
4.502282998332e-33
4.5178757933557e-33
4.5023363162752e-33
4.3722294081174e-33
4.4148803482289e-33
4.0266014678881e-33
4.1677478928602e-33
3.4488849585733e-33
3.7047378773921e-33
2.6949744911979e-33
3.0408265601767e-33
1.8806276124242e-33
2.2597606583421e-33
1.1445791763806e-33
1.4886232440609e-33
5.9302778448064e-34
8.5001679950011e-34
2.5713349662171e-34
4.1250372320272e-34
9.3729451540911e-35
1.6889429155414e-34
2.9830599041623e-35
5.9351435062672e-35
8.8092439591264e-36
1.8696379317746e-35
2.5457975383858e-36
5.5643599266827e-36
7.3920503646022e-37
1.6269880416002e-36
2.1671789201457e-37
4.7603531673303e-37
6.3948350747181e-38
1.3998361983689e-37
1.8931722235043e-38
4.1333453117184e-38
5.6171423212357e-39
1.2239240645342e-38
1.6709388990979e-39
3.6333896601106e-39
4.9865621281348e-40
1.0817834905464e-39
1.4931998995482e-40
3.2314676852395e-40
4.4843088527094e-41
9.6838869208314e-41
1.3491634589077e-41
2.9093478089826e-41
4.0607766353182e-42
8.7526452503482e-42
1.2209120210559e-42
2.6331591114808e-42
3.6619273003283e-43
7.9104633323678e-43
1.0945093154032e-43
2.3701667284162e-43
3.2574142108318e-44
7.0759163713146e-44
9.6480137353179e-45
2.1032994526367e-44
2.8429120491661e-45
6.2218358200763e-45
8.3321504155573e-46
1.8310191967971e-45
2.428635912081e-46
5.3596794613519e-46
7.0403298992228e-47
1.5602339226759e-46
2.0285464864394e-47
4.5182357359389e-47
5.8370229445238e-48
1.298390251363e-47
1.6182246407286e-48
3.7727444486743e-48
5.6250454533958e-49
9.525787176477e-49
4.9335027367156e-49
0
0
0
0
0
0
0
0
0
0
0
0
8.8915513074746e-72
4.4396012942513e-72
1.9814572374898e-69
9.8922530657389e-70
1.9558361464009e-67
9.7915699821483e-68
1.1976744478554e-65
6.0218658813551e-66
5.2287561601998e-64
2.642848270147e-64
1.7570341577358e-62
8.9331216503956e-63
4.7722605497844e-61
2.4416384546349e-61
1.0831255367049e-59
5.5785146431382e-60
2.1020425871071e-58
1.0901957560161e-58
3.5467388594817e-57
1.8529121851001e-57
5.2702327797288e-56
2.7743009155485e-56
6.9691061974141e-55
3.6976683111912e-55
8.2716060845857e-54
4.4246446436612e-54
8.8810251302695e-53
4.7899836142685e-53
8.7023026786304e-52
4.7314161957316e-52
7.8690007559972e-51
4.3100033620725e-51
6.6511127181295e-50
3.6662557625556e-50
5.3200898764759e-49
2.9483309560611e-49
4.0646524995399e-48
2.2631097759918e-48
2.9808311461361e-47
1.6670710875748e-47
2.1001574103235e-46
1.1800734617435e-46
1.4190239067775e-45
8.0153850143919e-46
9.1664894014909e-45
5.208587948939e-45
5.6418037587787e-44
3.2273576304313e-44
3.2984243854077e-43
1.9009802884303e-43
1.8273395920988e-42
1.061811969653e-42
9.5768069013147e-42
5.6143468718413e-42
4.7431393564703e-41
2.8071243469329e-41
2.2189519621677e-40
1.3264847263906e-40
9.8047998081061e-40
5.9233796562207e-40
4.0929347254166e-39
2.5000010283208e-39
1.6147805905507e-38
9.9764380560247e-39
6.0242279936732e-38
3.7660813051262e-38
2.1264406431983e-37
1.3456369622105e-37
7.1062421990483e-37
4.5535827927537e-37
2.249795912337e-36
1.4602937147275e-36
6.7523328397518e-36
4.4409220415932e-36
1.9225364713774e-35
1.2815842803395e-35
5.1966139970262e-35
3.5121244030438e-35
1.3344986687713e-34
9.1466342169136e-35
3.258365124938e-34
2.265424666542e-34
7.5698939369433e-34
5.3402415374989e-34
1.6745035677586e-33
1.1989541232534e-33
3.5288896092947e-33
2.5653299526024e-33
7.088074066962e-33
5.2335162200354e-33
1.3572484698513e-32
1.0183356872199e-32
2.4777019671986e-32
1.8901303520891e-32
4.3113811367796e-32
3.3462641884024e-32
7.1473860418407e-32
5.6485999549977e-32
1.1278110096605e-31
9.084804002115e-32
1.6910798888185e-31
1.3903506593059e-31
2.4019560971582e-31
2.0200538963959e-31
3.2093765564076e-31
2.7734783670239e-31
3.9667344508268e-31
3.5594872285658e-31
4.4166411324703e-31
4.1744634754605e-31
4.5000996197001e-31
4.4177076973117e-31
4.4960643524935e-31
4.4303595126822e-31
4.3682507410043e-31
4.3570336560334e-31
4.0575256220696e-31
4.1402502554474e-31
3.5157080278834e-31
3.7164085811731e-31
2.7898337691944e-31
3.0911147190428e-31
1.9863872712233e-31
2.3372549552646e-31
1.2410740514322e-31
1.5745888075646e-31
6.6498307447001e-32
9.25310652626e-32
3.0030508311474e-32
4.653079226114e-32
1.1440044231549e-32
1.9845442260212e-32
3.7912962895831e-33
7.268593674733e-33
1.1549976296971e-33
2.3736971085464e-33
3.411706289683e-34
7.263191795251e-34
1.0073599606337e-34
2.1685136411832e-34
2.9991863072281e-35
6.455429221797e-35
8.9924899282837e-36
1.9295484971785e-35
2.7081635292757e-36
5.7936651916817e-36
8.1830390988443e-37
1.7461043908847e-36
2.4813135298436e-37
5.2809087846241e-37
7.5538294346677e-38
1.6032129361904e-37
2.3085761218981e-38
4.8864969456648e-38
7.0770681179882e-39
1.4947516128586e-38
2.1729685124951e-39
4.5841295427027e-39
6.6704834414805e-40
1.4073158521916e-39
2.0435383654181e-40
4.3172872685094e-40
6.2383020452646e-41
1.321263755269e-40
1.8954685274654e-41
4.0283537025946e-41
5.7281018639556e-42
1.2223219412567e-41
1.7209135186436e-42
3.688701512185e-42
5.1387917314371e-43
1.1066674478199e-42
1.5250085514108e-43
3.3000571267789e-43
4.4975729883916e-44
9.7801672933501e-44
1.3183457827142e-44
2.8804774526899e-44
3.8387262426417e-45
8.4341003180039e-45
1.1157555717144e-45
2.4490531168847e-45
3.1216360010236e-46
7.1899988126937e-46
1.0978529432229e-46
1.8277266499074e-46
9.624787389759e-47
0
0
0
0
0
0
0
0
0
0
4.1191475597146e-72
2.0493446077601e-72
1.2246838597833e-69
6.0793272805289e-70
1.5712391413095e-67
7.7993143000161e-68
1.2054676043502e-65
5.9949640333673e-66
6.4115766185246e-64
3.19894935314e-64
2.5685987656478e-62
1.2870223545678e-62
8.1722367582378e-61
4.1152843604063e-61
2.1427829304132e-59
1.0850505910083e-59
4.7549479197727e-58
2.4223207688492e-58
9.1032305623901e-57
4.6674131157028e-57
1.5257033718171e-55
7.8761266074952e-56
2.264869950242e-54
1.1776230512228e-54
3.0054273247343e-53
1.5744963988212e-53
3.5923592334264e-52
1.8968196945567e-52
3.893970589313e-51
2.0728461756074e-51
3.8517190546904e-50
2.0674017624064e-50
3.4992800286219e-49
1.8936190217389e-49
2.9449315938173e-48
1.6056915421224e-48
2.323378344576e-47
1.2748901688996e-47
1.7416176734449e-46
9.6049950712659e-47
1.253344661958e-45
6.9413885538555e-46
8.6925111519876e-45
4.8347887990966e-45
5.7988359859043e-44
3.2417388037289e-44
3.7048894140176e-43
2.0839967699244e-43
2.2580793309017e-42
1.2793737202688e-42
1.3095402587559e-41
7.4795730289583e-42
7.2159175878022e-41
4.157497012567e-41
3.7747462468358e-40
2.1950437729415e-40
1.8733516978605e-39
1.1000166465455e-39
8.8146873978998e-39
5.2289425392492e-39
3.9298100096967e-38
2.35617811877e-38
1.6590158133858e-37
1.0058223235035e-37
6.6284920899803e-37
4.0656117532365e-37
2.5054155655478e-36
1.5553860665747e-36
8.955935112989e-36
5.6301858108155e-36
3.0270913317447e-35
1.9279425237868e-35
9.6737597684706e-35
6.2447996949631e-35
2.923157107126e-34
1.9134539279037e-34
8.3540859081993e-34
5.5472658125561e-34
2.2590538214181e-33
1.5221826613266e-33
5.7841241322882e-33
3.9559105450178e-33
1.4036974721565e-32
9.7455950136739e-33
3.2332505636381e-32
2.2787327731583e-32
7.0812855636119e-32
5.0653310483878e-32
1.4777900985937e-31
1.0725320508143e-31
2.9452356246129e-31
2.1679520722554e-31
5.6171828458233e-31
4.1922004170382e-31
1.0266048033514e-30
7.7677841854283e-31
1.7984431215336e-30
1.3801815019407e-30
3.0168634944439e-30
2.3505396044304e-30
4.8351295168143e-30
3.8306874393444e-30
7.3797043003548e-30
5.9578911228031e-30
1.0678957903853e-29
8.8106226645694e-30
1.4547479312154e-29
1.2322127121456e-29
1.8378642365123e-29
1.6134396979349e-29
2.0969683300333e-29
1.9371923957965e-29
2.1641246454834e-29
2.0922519182811e-29
2.1664029045721e-29
2.1106594584544e-29
2.1193253740035e-29
2.0849918700024e-29
1.9897328299713e-29
1.998248737123e-29
1.7484680828003e-29
1.8157010675442e-29
1.4119525111917e-29
1.5338759905058e-29
1.0270714787036e-29
1.1820756799482e-29
6.5895741639004e-30
8.1514179235057e-30
3.6483990557259e-30
4.9292989923699e-30
1.7131978422885e-30
2.5658743490089e-30
6.8096400760665e-31
1.1382517898771e-30
2.3488695483839e-31
4.3405539489224e-31
7.3883365742533e-32
1.4695617402038e-31
2.2336284340366e-32
4.6272198081981e-32
6.7130239041089e-33
1.4120886359274e-32
2.0307097622429e-33
4.2800723653443e-33
6.1883998696442e-34
1.3009563697122e-33
1.8963073743331e-34
3.9733873164628e-34
5.8373403250416e-35
1.2192075084458e-34
1.805217986467e-35
3.7582477215147e-35
5.6098818988806e-36
1.1640650677038e-35
1.7511703129998e-36
3.6227879016528e-36
5.4842353928049e-37
1.1320856258902e-36
1.719761849861e-37
3.5469084389551e-37
5.3876407894278e-38
1.1119404864383e-37
1.682565654114e-38
3.4804041414881e-38
5.2292736739013e-39
1.0855260960469e-38
1.615474434107e-39
3.3686179609815e-39
4.9574715894557e-40
1.0390168382308e-39
1.5107456509068e-40
3.1834707005411e-40
4.5714777449459e-41
9.6865460027311e-41
1.373626024031e-41
2.9267835549477e-41
4.0988241286066e-42
8.7816976795868e-42
1.2148386658687e-42
2.6166719064136e-42
3.5746552341221e-43
7.746533990255e-43
1.049515653161e-43
2.2729091649693e-43
2.9632077720047e-44
6.7420752655031e-44
1.0545214178049e-44
1.7253087898537e-44
9.24007927281e-45
0
0
0
0
0
0
0
0
0
0
3.1028043567854e-70
1.5239840920926e-70
6.6439467099609e-68
3.2645330338924e-68
6.8641562162201e-66
3.3768025938189e-66
4.5556397381107e-64
2.2460017696448e-64
2.1921593825361e-62
1.0840600155797e-62
8.1847727038661e-61
4.0629193470735e-61
2.4770343412113e-59
1.2350716594842e-59
6.2685134321428e-58
3.141145266636e-58
1.3568332764623e-56
6.8363262474345e-57
2.5543988937003e-55
1.2946457885045e-55
4.238040425158e-54
2.1616072391504e-54
6.2614214626538e-53
3.2152193269287e-53
8.3058008482396e-52
4.2955311384773e-52
9.9604660087248e-51
5.1900276421102e-51
1.0866273442028e-49
5.7064983192081e-50
1.0838783769345e-48
5.738616902573e-49
9.9290378606765e-48
5.3011307926654e-48
8.3970615704476e-47
4.5205225538431e-47
6.6055221144953e-46
3.5832392319681e-46
4.8879085152185e-45
2.6679775510916e-45
3.4524912247912e-44
1.8927404340705e-44
2.3608814322734e-43
1.2982471587292e-43
1.5758782174765e-42
8.6922341046703e-43
1.0272440614756e-41
5.6910093782631e-42
6.5084533196929e-41
3.6286230958219e-41
3.9824889147669e-40
2.238414240076e-40
2.3388557456717e-39
1.3270430007483e-39
1.3111353022269e-38
7.5166341527875e-39
6.9838208696288e-38
4.0481263712827e-38
3.5216732483565e-37
2.0650476591307e-37
1.6765328162696e-36
9.9499862751399e-37
7.5200395981203e-36
4.5191777779941e-36
3.1738556734898e-35
1.9322080812857e-35
1.2593018924472e-34
7.7701297324656e-35
4.6945839535048e-34
2.9372653436836e-34
1.6436522068874e-33
1.0433661241938e-33
5.4027348012472e-33
3.4815793954764e-33
1.6666392392949e-32
1.0909924101427e-32
4.8227010699856e-32
3.2092184795506e-32
1.308313448581e-31
8.8570691005575e-32
3.3253094973822e-31
2.2921359038733e-31
7.9142356112704e-31
5.5591060864678e-31
1.7633716383566e-30
1.2630930219099e-30
3.680125171551e-30
2.6892353902593e-30
7.2071698068825e-30
5.3721096012821e-30
1.329505915782e-29
1.009861791066e-29
2.3241902916068e-29
1.7954800601893e-29
3.8813313058385e-29
3.0409177825313e-29
6.2451946622709e-29
4.9470155145169e-29
9.7507413012113e-29
7.7899700550328e-29
1.4823369981186e-28
1.1932738303569e-28
2.1910350352668e-28
1.7793318207855e-28
3.129136562184e-28
2.5725201397789e-28
4.272002987346e-28
3.5767577777962e-28
5.4796691315121e-28
4.7206521877448e-28
6.4162818699125e-28
5.7847292232053e-28
6.752088344793e-28
6.4045811214697e-28
6.7721711791135e-28
6.5244900504788e-28
6.6758885750801e-28
6.4738400681505e-28
6.3380791631418e-28
6.2598575396855e-28
5.6542064648856e-28
5.7625457607809e-28
4.6516547654783e-28
4.9496762721434e-28
3.4596321975116e-28
3.8915057653784e-28
2.2796873625397e-28
2.7482897725879e-28
1.3033413892957e-28
1.7099427590951e-28
6.3548153236025e-29
9.2053237931382e-29
2.6316076252762e-29
4.2417384777159e-29
9.4420161736772e-30
1.682328822135e-29
3.0684428823104e-30
5.9042850962698e-30
9.5057368920848e-31
1.91447341797e-30
2.9110544058468e-31
5.9777311660001e-31
8.9534435805985e-32
1.846369124493e-31
2.7743883620479e-32
5.7104632607222e-32
8.6537727765637e-33
1.7748889100758e-32
2.7151330202205e-33
5.5474244047421e-33
8.5690463170549e-34
1.7438823891294e-33
2.720430766889e-34
5.5147805380525e-34
8.6814610293607e-35
1.7539446347463e-34
2.7800177335544e-35
5.6041144562803e-35
8.9106629202389e-36
1.795324298799e-35
2.8507941086061e-36
5.7519251447585e-36
9.0805576823953e-37
1.8380962055142e-36
2.8742180183203e-37
5.8454238855871e-37
9.0297921370354e-38
1.8468746635477e-37
2.8141735891041e-38
5.7916494237708e-38
8.6993187370307e-39
1.8018287684014e-38
2.667602585472e-39
5.5606497072461e-39
8.115899922884e-40
1.7024430188235e-39
2.4502804548718e-40
5.1716337824843e-40
7.3432707719861e-41
1.5590349615488e-40
2.1835961012292e-41
4.6666504865228e-41
6.476107691974e-42
1.3835813044857e-41
1.845250940593e-42
4.1468408024309e-42
6.6459946219387e-43
1.0681649141746e-42
5.8199060701451e-43
0
0
0
0
0
0
0
0
9.9132899471797e-81
4.8807499253684e-81
1.1338587828643e-68
5.4930368729346e-69
2.1246592809208e-66
1.0313742909934e-66
1.96718752601e-64
9.571598937836e-65
1.1964008706318e-62
5.8375045031956e-63
5.3726251551862e-61
2.6300317256344e-61
1.8998135400076e-59
9.3351341627119e-60
5.5104379803067e-58
2.7191279624362e-58
1.3493566916196e-56
6.6894246187482e-57
2.8482665433217e-55
1.4191911875845e-55
5.2635952150605e-54
2.6370350783763e-54
8.6220463230005e-53
4.3450401405809e-53
1.2638095250174e-51
6.409051558349e-52
1.6703225624997e-50
8.5274316776874e-51
2.0033431670094e-49
1.0300428548819e-49
2.1922504587826e-48
1.1356225991378e-48
2.1989486421192e-47
1.1480352667785e-47
2.030159940477e-46
1.0686185355617e-46
1.7311324983914e-45
9.1901021466739e-46
1.3676818775431e-44
7.3228581881951e-45
1.0073851098108e-43
5.4349956696842e-44
7.0145571567873e-43
3.8045969569349e-43
4.7237626090099e-42
2.5676192070437e-42
3.1559311596694e-41
1.7152739896381e-41
2.1272998707614e-40
1.1564352547643e-40
1.4478764731523e-39
7.8925017577625e-40
9.8225481976531e-39
5.386120805902e-39
6.5196975680057e-38
3.6056118711905e-38
4.1606724513105e-37
2.3248438639999e-37
2.5191499516521e-36
1.4239130852779e-36
1.4341059775908e-35
8.2069446781755e-36
7.6329399421434e-35
4.4254770659764e-35
3.7856832307201e-34
2.2250846233844e-34
1.7464137162578e-33
1.0412161183358e-33
7.4871952592726e-33
4.5306881078513e-33
2.982149556707e-32
1.8327175422997e-32
1.1034941919441e-31
6.8920250234509e-32
3.7936352000442e-31
2.4096949204097e-31
1.2116198168106e-30
7.8335101695455e-31
3.594498665058e-30
2.3675606772132e-30
9.9029264728354e-30
6.6516099613247e-30
2.5325310793167e-29
1.7365968602757e-29
6.0071665935393e-29
4.2107215201632e-29
1.3197720484864e-28
9.4713610207318e-29
2.6795501417533e-28
1.972623593325e-28
5.0126369934294e-28
3.7938886395796e-28
8.6173537315553e-28