/*--------------------------------*- C++ -*----------------------------------*\
  =========                 |
  \\      /  F ield         | OpenFOAM: The Open Source CFD Toolbox
   \\    /   O peration     | Website:  https://openfoam.org
    \\  /    A nd           | Version:  7
     \\/     M anipulation  |
\*---------------------------------------------------------------------------*/
FoamFile
{
    version     2.0;
    format      ascii;
    class       volScalarField;
    location    "1.4";
    object      alpha.water;
}
// * * * * * * * * * * * * * * * * * * * * * * * * * * * * * * * * * * * * * //

dimensions      [0 0 0 0 0 0 0];

internalField   nonuniform List<scalar> 
6000
(
0
0
0
0
0
0
0
0
0
0
0
0
0
0
0
0
0
0
0
0
0
0
0
0
0
0
0
0
0
0
0
0
0
0
0
0
0
0
0
0
0
0
0
0
0
0
0
0
0
0
0
0
0
0
0
0
0
0
0
0
0
0
0
0
0
0
0
0
0
0
0
0
0
0
0
0
0
0
0
0
0
0
0
0
0
0
0
0
0
0
0
0
0
0
0
0
0
0
0
0
0
0
0
0
0
0
0
0
0
0
0
0
0
0
0
0
0
0
0
0
0
0
0
0
0
0
0
0
0
0
0
0
0
0
0
0
0
0
0
0
0
0
0
0
0
0
0
0
0
0
0
0
0
0
0
0
0
0
0
0
0
0
0
0
0
0
0
0
0
0
0
0
0
0
0
0
0
0
0
0
0
0
0
0
0
0
0
0
0
0
0
0
0
0
0
0
0
0
0
0
0
0
0
0
0
0
0
0
0
0
0
0
0
0
0
0
0
0
0
0
0
0
0
0
0
0
0
0
0
0
0
0
0
0
0
0
0
0
0
0
0
0
0
0
0
0
0
0
0
0
0
0
0
0
0
0
0
0
0
0
0
0
0
0
0
0
0
0
0
0
0
0
0
0
0
0
0
0
0
0
0
0
0
0
0
0
0
0
0
0
0
0
0
0
0
0
0
0
0
0
0
0
0
0
0
0
0
0
0
0
0
0
0
0
0
0
0
0
0
0
0
0
0
0
0
0
0
0
0
0
0
0
0
0
0
0
0
0
0
0
0
0
0
0
0
0
0
0
0
0
0
0
0
0
0
0
0
0
0
0
0
0
0
0
0
0
0
0
0
0
0
0
0
0
0
0
0
0
0
0
0
0
0
0
0
0
0
0
0
0
0
0
0
0
0
0
0
0
0
0
0
0
0
0
0
0
0
0
0
6.0895549103878e-49
2.7457754954659e-47
6.1372662949088e-46
9.0634751940741e-45
9.9478099418917e-44
8.6543438374254e-43
6.2159388001343e-42
3.7908291565314e-41
2.0036680356648e-40
9.3234530911191e-40
3.8667055758454e-39
1.4435762557819e-38
4.891409593193e-38
1.5146331945491e-37
4.3111630898589e-37
1.1336349602639e-36
2.7658915967965e-36
6.2854493165859e-36
1.3348681921456e-35
2.6572948027684e-35
4.9716510965301e-35
8.7632135255576e-35
1.4583729368564e-34
2.2959821309916e-34
3.4256164794807e-34
4.8516229342636e-34
6.5322272771129e-34
8.3725221176362e-34
1.0228669341797e-33
1.1924898001779e-33
1.3280947883419e-33
1.4144057335513e-33
1.4417482122423e-33
1.4078179392697e-33
1.3179235840806e-33
1.1836996883817e-33
1.0207017759716e-33
8.4555205395679e-34
6.7332528389301e-34
5.1569620912003e-34
3.8007752706436e-34
2.6969261991751e-34
1.8432297668881e-34
1.2139053966499e-34
7.7064350372629e-35
4.7178273057312e-35
2.786090785519e-35
1.5876217963185e-35
8.7321446700052e-36
4.6369288293381e-36
2.377822204065e-36
1.1777756207103e-36
5.6359314381612e-37
2.6059491244724e-37
1.1644802725231e-37
5.0294995896054e-38
2.0998897767263e-38
8.4760201221016e-39
3.3078680173717e-39
1.2482299534859e-39
4.5546288439855e-40
1.6070809739927e-40
5.4834742817889e-41
1.8092827722925e-41
5.7727330683574e-42
1.781005596813e-42
5.3129356174348e-43
1.5323513901561e-43
4.272655676511e-44
1.1516123001712e-44
3.0000518388324e-45
7.5526985919552e-46
1.8371926551931e-46
4.3172388154609e-47
9.7986646335591e-48
2.1475260902948e-48
4.5437284841544e-49
9.2783429834105e-50
1.8280324663041e-50
3.4738683091881e-51
6.3651409344018e-52
1.1241008360913e-52
1.9126259281065e-53
3.1339657264544e-54
4.9430614364418e-55
7.5009942498929e-56
1.094538002756e-56
1.5349127692754e-57
2.0673382806344e-58
2.6725747250687e-59
3.7579445989834e-60
0
0
0
0
0
0
0
-5.62668879467e-39
-2.2658874389463e-37
-4.5027460954838e-36
-5.881022253391e-35
-5.6716652491166e-34
-4.2999894860496e-33
-2.6628475738887e-32
-1.3804969405911e-31
-6.0847132524565e-31
-2.2979430128371e-30
-7.4296087466631e-30
-2.0263025690272e-29
-4.4444863461378e-29
-6.5747592560186e-29
9.3673853837117e-30
5.2161803440487e-28
2.4397648554696e-27
8.0975485489688e-27
2.2415736814824e-26
5.4615236273486e-26
1.2015344127751e-25
2.4221997456224e-25
4.5175334410749e-25
7.848346354267e-25
1.2767292393491e-24
1.9528671313862e-24
2.8184471086567e-24
3.8495752881767e-24
4.9892466406391e-24
6.1506269058373e-24
7.2280940842221e-24
8.1140274237791e-24
8.7173579309439e-24
8.9792249988852e-24
8.8819721776925e-24
8.4497599330312e-24
7.7414472089643e-24
6.8382516737456e-24
5.8295315790291e-24
4.7998010771189e-24
3.8191252978435e-24
2.9378129776148e-24
2.1852346389845e-24
1.571866392205e-24
1.093338310575e-24
7.3528075112505e-25
4.779942264681e-25
3.0030174971535e-25
1.822832254531e-25
1.0687522591588e-25
6.0512034692387e-26
3.3078200129993e-26
1.745372833698e-26
8.8879543856225e-27
4.367304581931e-27
2.0704402873347e-27
9.4688295571637e-28
4.1770216549411e-28
1.7771761317157e-28
7.2919948794377e-29
2.8851868880323e-29
1.1007079296924e-29
4.0485314931909e-30
1.4355013123324e-30
4.9061311844613e-31
1.6160227959305e-31
5.1293850192805e-32
1.5686349261424e-32
4.6210236891541e-33
1.3110706161979e-33
3.5816856338615e-34
9.4191895633341e-35
2.3838777652903e-35
5.8045177595613e-36
1.3592963998414e-36
3.0603288174035e-37
6.6214467128745e-38
1.3761868488876e-38
2.7462066819569e-39
5.258881687091e-40
9.6585315391514e-41
1.7002705547463e-41
2.8669672521076e-42
4.6270973005667e-43
7.1421980158999e-44
1.0534620698678e-44
1.4834179886837e-45
1.9921586095266e-46
2.5486999768262e-47
3.1025801041367e-48
3.5889160042584e-49
3.9392347820259e-50
4.5399603750414e-51
0
0
0
0
0
0
-2.4960438092196e-37
-1.0660953715654e-35
-2.2522762764942e-34
-3.1376868167582e-33
-3.2422731805382e-32
-2.6503365073336e-31
-1.7849013269692e-30
-1.0184358200362e-29
-5.0246967157997e-29
-2.1770095104545e-28
-8.3837271884322e-28
-2.8975879213655e-27
-9.0586465539143e-27
-2.5781335867159e-26
-6.7151076533565e-26
-1.6075928574016e-25
-3.5495392990703e-25
-7.2474447558394e-25
-1.3708686783376e-24
-2.4042181089151e-24
-3.9081117696912e-24
-5.8760497598669e-24
-8.1333219900266e-24
-1.0264795381061e-23
-1.1582419130175e-23
-1.1166874512617e-23
-8.0030239337691e-24
-1.1994158814908e-24
9.7529441429298e-24
2.4753784589867e-23
4.2974493981409e-23
6.2899679730313e-23
8.2537742959777e-23
9.9757972483286e-23
1.126727760231e-22
1.1997047575056e-22
1.2112027683908e-22
1.1640949176016e-22
1.0681971282275e-22
9.3788104064432e-23
7.8921464872461e-23
6.3730750889801e-23
4.9436144129935e-23
3.6866001554048e-23
2.6446492408265e-23
1.8259620552508e-23
1.2138816506617e-23
7.772639311562e-24
4.795005558613e-24
2.8506141865715e-24
1.6334285303953e-24
9.0228572402774e-25
4.8053888338607e-25
2.4677524443187e-25
1.2220873685933e-25
5.8366157020337e-26
2.6884419624412e-26
1.1943611547055e-26
5.1176791150223e-27
2.115007499007e-27
8.4303066582348e-28
3.2407861881505e-28
1.2014548470152e-28
4.2951706232968e-29
1.4805603098718e-29
4.9203046835888e-30
1.5762166965437e-30
4.8666000813068e-31
1.4478998957689e-31
4.150123528164e-32
1.1457457626946e-32
3.045815273825e-33
7.7943134844894e-34
1.919416214276e-34
4.546966659743e-35
1.0357755842254e-35
2.2678568405286e-36
4.7705707389311e-37
9.6363222771851e-38
1.8681072609298e-38
3.4736453001714e-39
6.1913434139895e-40
1.0570607651086e-40
1.7274517320686e-41
2.6999226941108e-42
4.0323250553514e-43
5.749180389605e-44
7.817264129644e-45
1.0125477827024e-45
1.2478389941816e-46
1.4611886959643e-47
1.6234074807793e-48
1.7085616490815e-49
1.8755430984863e-50
0
0
0
0
0
8.2864137388162e-39
-4.9179769977297e-36
-2.1430534836722e-34
-4.5131198872176e-33
-6.2353439023968e-32
-6.3803193407468e-31
-5.1632602569399e-30
-3.4435241609752e-29
-1.9469800938687e-28
-9.5266548955228e-28
-4.0976037426752e-27
-1.5683808951008e-26
-5.3948287870806e-26
-1.6811377045145e-25
-4.7778030487204e-25
-1.2453258597845e-24
-2.991001477117e-24
-6.6459642834308e-24
-1.3707465568383e-23
-2.6315415478138e-23
-4.7126951145163e-23
-7.8856315611778e-23
-1.2340620609339e-22
-1.8066067085295e-22
-2.4721335388019e-22
-3.1549180121065e-22
-3.7380155871639e-22
-4.0766587879882e-22
-4.0246936946809e-22
-3.4692754803029e-22
-2.3648533108451e-22
-7.5591073673956e-23
1.2199271640945e-22
3.3513683465947e-22
5.3915751671111e-22
7.1052026903849e-22
8.3120401031894e-22
8.9163977019734e-22
8.9161395404395e-22
8.3914291661135e-22
7.4786424851428e-22
6.3378878636625e-22
5.1226245774771e-22
3.95754081064e-22
2.9273684388564e-22
2.0759908765168e-22
1.4129698108578e-22
9.2380144192064e-23
5.8060040986176e-23
3.5098894491143e-23
2.0419786681404e-23
1.1437783958728e-23
6.1706219880204e-24
3.2073897856466e-24
1.6066762029171e-24
7.7581396938774e-25
3.6117732324557e-25
1.6213673456059e-25
7.0192247601224e-26
2.9307406110581e-26
1.1802267623333e-26
4.5841500542139e-27
1.717313050065e-27
6.2046356296977e-28
2.1618489740741e-28
7.263236754268e-29
2.3527292877199e-29
7.3464825071265e-30
2.2109005492982e-30
6.4112899665732e-31
1.7910172354083e-31
4.8184924574213e-32
1.2480889557232e-32
3.1113953977277e-33
7.4624001318809e-34
1.7212313197953e-34
3.8163279337449e-35
8.129990329471e-36
1.6632106861428e-36
3.2656838716665e-37
6.1504641605124e-38
1.1103626302846e-38
1.9201659319485e-39
3.1783306424419e-40
5.0313986530344e-41
7.6106510101527e-42
1.0989572177436e-42
1.5132593665544e-43
1.9848553348037e-44
2.476816995765e-45
2.936484365618e-46
3.3029049477864e-47
3.5188844575513e-48
3.5448066940457e-49
3.6991386023157e-50
0
0
0
0
0
1.8056295239123e-37
-4.7530222589742e-35
-2.1343546383806e-33
-4.5012261484194e-32
-6.1883245525539e-31
-6.2872151803451e-30
-5.0476138999011e-29
-3.338965131725e-28
-1.8725957774014e-27
-9.0905524684806e-27
-3.8803979422667e-26
-1.4744937994052e-25
-5.0370287207033e-25
-1.5594607892544e-24
-4.4050638817954e-24
-1.1416961371383e-23
-2.727948978951e-23
-6.0334294402553e-23
-1.2394320321655e-22
-2.3717232685521e-22
-4.2376337188087e-22
-7.0831522839336e-22
-1.1091350298921e-21
-1.6284404211441e-21
-2.2422451546574e-21
-2.8936678102404e-21
-3.4937018692971e-21
-3.9320579817535e-21
-4.0976272441038e-21
-3.9043840161929e-21
-3.315680028912e-21
-2.3592797925262e-21
-1.127694982133e-21
2.3726448382855e-22
1.571901449207e-21
2.7225792640778e-21
3.5737456332265e-21
4.0653052054573e-21
4.1962627943674e-21
4.0156784248017e-21
3.6051603687145e-21
3.0585241193628e-21
2.4637759062186e-21
1.8907882557392e-21
1.3857749717876e-21
9.7173229917461e-22
6.5286438715197e-22
4.2074072564227e-22
2.6032926366516e-22
1.5476824331469e-22
8.8465194704759e-23
4.8644606481965e-23
2.5743926608285e-23
1.3118081510753e-23
6.4383405212446e-24
3.0444985637314e-24
1.3874109738865e-24
6.0944096510026e-25
2.5808700651206e-25
1.053807369704e-25
4.1490804536845e-26
1.5752727342556e-26
5.76731845474e-27
2.0360624807363e-27
6.9306846215449e-28
2.2744819861997e-28
7.195295458924e-29
2.1938062569452e-29
6.4452641343626e-30
1.8241938978588e-30
4.9724439032143e-31
1.3049800794312e-31
3.2962864736656e-32
8.0106958408635e-33
1.872240462832e-33
4.2063468579252e-34
9.0800862031267e-35
1.8822970903212e-35
3.7450105344971e-36
7.1469091135512e-37
1.3073637338858e-37
2.2907493507123e-38
3.8417339777155e-39
6.1614760272037e-40
9.4419217828903e-41
1.3811254391679e-41
1.9264036308859e-42
2.5592284270468e-43
3.2343142334702e-44
3.8831425574377e-45
4.4225835851613e-46
4.7705050276478e-47
4.8650209939992e-48
4.6816252747833e-49
4.6341628501874e-50
0
0
0
0
8.1158164891808e-49
1.9614166871805e-36
-2.9911871283336e-34
-1.3983411311526e-32
-2.9611862641643e-31
-4.0567779903554e-30
-4.0960447230765e-29
-3.2643569455705e-28
-2.1424871733877e-27
-1.1919738347387e-26
-5.7400137599163e-26
-2.4305707272237e-25
-9.1621869867526e-25
-3.1050163212566e-24
-9.5366232044746e-24
-2.6723100594496e-23
-6.8702193985705e-23
-1.6281842043517e-22
-3.5713948134516e-22
-7.2756025226185e-22
-1.3806070582934e-21
-2.4463339322125e-21
-4.0559690311593e-21
-6.3024827952507e-21
-9.1891798352253e-21
-1.2579861812133e-20
-1.6170224741632e-20
-1.9499701254896e-20
-2.2013723782361e-20
-2.3170103464234e-20
-2.25656024976e-20
-2.0047268715211e-20
-1.5773393600523e-20
-1.0202111315993e-20
-4.0073683922777e-21
2.0556584137938e-21
7.2988086106604e-21
1.1223746701631e-20
1.3590649860651e-20
1.442246916437e-20
1.3953658928838e-20
1.2545760565385e-20
1.059654851258e-20
8.4650313338515e-21
6.4248565994571e-21
4.6480152537356e-21
3.2127150382189e-21
2.125502452495e-21
1.3478644790192e-21
8.2018165999055e-22
4.7933858061515e-22
2.6925268150749e-22
1.4545321855765e-22
7.5604541010831e-23
3.7827990549028e-23
1.8225084894004e-23
8.4574990729389e-24
3.7812394643457e-24
1.6290361242245e-24
6.7639170633947e-25
2.7069900737498e-25
1.0443094865246e-25
3.8836762060186e-26
1.3922873142196e-26
4.8113990101067e-27
1.6026508068752e-27
5.1449793987166e-28
1.5916282681842e-28
4.7438722274936e-29
1.3619520831336e-29
3.7654469553025e-30
1.0022352164214e-30
2.5673075450176e-31
6.3267678459738e-32
1.4993601382537e-32
3.4155258456601e-33
7.475269163067e-34
1.571034298832e-34
3.1687422858658e-35
6.1300394289821e-36
1.1366478519478e-36
2.0186601628713e-37
3.4311424298666e-38
5.5768577870368e-39
8.6601183343705e-40
1.283565809359e-40
1.813905130496e-41
2.4412770244315e-42
3.1252685398793e-43
3.8004940239332e-44
4.3836627875837e-45
4.7882976108522e-46
4.9443282885182e-47
4.8169728935723e-48
4.4182724378892e-49
4.1384507350042e-50
0
0
0
0
1.8575240904416e-47
1.4156234275709e-35
-1.3702094374993e-33
-6.7636287962975e-32
-1.4423907374437e-30
-1.9715607792604e-29
-1.9796018116834e-28
-1.5666342193178e-27
-1.0203285100552e-26
-5.6309490224321e-26
-2.6892335397306e-25
-1.1291648928066e-24
-4.2200453877402e-24
-1.41767382938e-23
-4.3153064641461e-23
-1.198125039684e-22
-3.0511563021923e-22
-7.1606013700585e-22
-1.5549383376682e-21
-3.1352244691385e-21
-5.8874149243525e-21
-1.0323148229001e-20
-1.6939480234044e-20
-2.6061488435999e-20
-3.7648945431246e-20
-5.1122264831309e-20
-6.5279521088982e-20
-7.8367088231802e-20
-8.8328143816315e-20
-9.3196159923072e-20
-9.1544683890036e-20
-8.2871769539686e-20
-6.7801768340683e-20
-4.8030951357938e-20
-2.6015359782711e-20
-4.4771422225709e-21
1.4137661391953e-20
2.8103442428121e-20
3.6651202028968e-20
3.9958144966716e-20
3.8930485763945e-20
3.4873647799637e-20
2.9157662821771e-20
2.2961185766623e-20
1.7132790233916e-20
1.2164444094704e-20
8.2440401892506e-21
5.3455652456016e-21
3.3222617000826e-21
1.9817923903566e-21
1.1358493547161e-21
6.2598378429765e-22
3.3192416119566e-22
1.6940824169288e-22
8.3250412031709e-23
3.9399828602846e-23
1.7961078019565e-23
7.8878087309493e-24
3.3374036711174e-24
1.3605719477677e-24
5.3446261965489e-25
2.0230630568577e-25
7.3790543118405e-26
2.593478539866e-26
8.7828188486877e-27
2.8656233208795e-27
9.0071560267318e-28
2.7269254068471e-28
7.9504721260361e-29
2.2317569793601e-29
6.0300140145733e-30
1.5677362268491e-30
3.9206606034109e-31
9.4277420262129e-32
2.1788676983044e-32
4.8375199461606e-33
1.0312364822801e-33
2.1095618653512e-34
4.1386504041438e-35
7.7816122374758e-36
1.401242190156e-36
2.4146429047498e-37
3.9785520262199e-38
6.2623415288761e-39
9.4072670448535e-40
1.3472430670926e-40
1.8373284012608e-41
2.3831222916797e-42
2.9358776625138e-43
3.4302236675118e-44
3.794908632679e-45
3.9683416386878e-46
3.9147461089274e-47
3.6354253449336e-48
3.1705378432795e-49
2.8025173022813e-50
0
0
0
0
2.1042072221929e-46
7.6331534961765e-35
-4.8245760052671e-33
-2.56959061583e-31
-5.5391476783381e-30
-7.5650113868914e-29
-7.5590508552647e-28
-5.9424195656571e-27
-3.8409485472398e-26
-2.1025697951977e-25
-9.9566720990141e-25
-4.1441819263165e-24
-1.5349013933966e-23
-5.1085967392435e-23
-1.5401639306481e-22
-4.2339256490652e-22
-1.0671831149968e-21
-2.4780202830019e-21
-5.3224041269918e-21
-1.0611708530613e-20
-1.9700802896215e-20
-3.4149521195709e-20
-5.540061395391e-20
-8.4284282583777e-20
-1.2044415459266e-19
-1.6186096874941e-19
-2.0468516985272e-19
-2.4354453715683e-19
-2.7236532935676e-19
-2.8557241408244e-19
-2.7938056370092e-19
-2.5281941849373e-19
-2.0818068194891e-19
-1.5072522778255e-19
-8.7692477014551e-20
-2.6853283042212e-20
2.5018105719718e-20
6.3352800261554e-20
8.6378622708444e-20
9.4996911118822e-20
9.2073952999017e-20
8.1437851874192e-20
6.6908990381761e-20
5.1607873940621e-20
3.763552526477e-20
2.6082692006409e-20
1.7244915032977e-20
1.0909942949459e-20
6.6196550014421e-21
3.8587707838105e-21
2.1637212925284e-21
1.1680304457246e-21
6.073353167817e-22
3.0425642250609e-22
1.4686896870882e-22
6.831191961936e-23
3.0613489174573e-23
1.3217360483071e-23
5.4974206559786e-24
2.2025591498474e-24
8.5001842080335e-25
3.1596774471935e-25
1.1312347097626e-25
3.9006474273237e-26
1.2952866228385e-26
4.1419122391089e-27
1.2752314949512e-27
3.7797421573609e-28
1.0782893067857e-28
2.9600937183031e-29
7.8171989907752e-30
1.9853265493216e-30
4.8471679550491e-31
1.1372087840697e-31
2.5626488903453e-32
5.5438962078254e-33
1.1507404936528e-33
2.2904106215054e-34
4.3685501276323e-35
7.9788348351818e-36
1.3943899192848e-36
2.3297457298731e-37
3.7180880216502e-38
5.6623006681395e-39
8.2199396478316e-40
1.1361842766974e-40
1.4934581527264e-41
1.8642929853714e-42
2.206847006436e-43
2.4732512005493e-44
2.61960733671e-45
2.6171815718015e-46
2.4611121349618e-47
2.1731915760202e-48
1.7971544205369e-49
1.4945443537095e-50
0
0
0
0
1.5733451053187e-45
3.2781501468822e-34
-1.3365470928962e-32
-7.9603151821736e-31
-1.7434838670019e-29
-2.3836086233214e-28
-2.3722819163469e-27
-1.853356505882e-26
-1.1890946648755e-25
-6.4566282789757e-25
-3.0314082969183e-24
-1.2505252062799e-23
-4.5891412572166e-23
-1.5129915206566e-22
-4.5173060322856e-22
-1.229511247211e-21
-3.0676723423062e-21
-7.0496049856011e-21
-1.4982049712983e-20
-2.9550654352739e-20
-5.4261679594019e-20
-9.3006128253724e-20
-1.491455378335e-19
-2.2418001812901e-19
-3.1628731803244e-19
-4.1923038566083e-19
-5.2220389586294e-19
-6.1103162111245e-19
-6.7072020852043e-19
-6.8883174871436e-19
-6.586918925989e-19
-5.8136305154435e-19
-4.6569597139056e-19
-3.2646682952013e-19
-1.8125105670348e-19
-4.6975838451563e-20
6.3007031285379e-20
1.4078830768789e-19
1.844774151018e-19
1.9751960811195e-19
1.8703840145561e-19
1.6171040172276e-19
1.297726485638e-19
9.7646650043394e-20
6.9380466476137e-20
4.680492141595e-20
3.0112166735449e-20
1.8542417560239e-20
1.0960478786229e-20
6.232908004022e-21
3.4151792282753e-21
1.8046479592674e-21
9.2002258563255e-22
4.5251786258111e-22
2.1468491182139e-22
9.8206257740653e-23
4.3299058483267e-23
1.8393408800343e-23
7.5259280082355e-24
2.9653242029173e-24
1.1249331665146e-24
4.1084052739599e-25
1.444358385041e-25
4.8876534963528e-26
1.5919027946414e-26
4.9897946329777e-27
1.505032299048e-27
4.3675449207007e-28
1.2191882856624e-28
3.2729547321269e-29
8.4473142213364e-30
2.0953638735628e-30
4.9933714894053e-31
1.1426989826044e-31
2.5099284112938e-32
5.2886877617459e-33
1.0684005021531e-33
2.0679416039092e-34
3.8322500280099e-35
6.7943454472915e-36
1.151485070954e-36
1.8637790413864e-37
2.8782729716172e-38
4.2365438800167e-39
5.9365722737531e-40
7.9097689386977e-41
1.0007103394849e-41
1.2004097389199e-42
1.3631010192305e-43
1.4626418072534e-44
1.4801889584272e-45
1.4097304513283e-46
1.2605627981719e-47
1.0554923281155e-48
8.2513268963977e-50
6.4339193388035e-51
0
0
0
0
8.7357545414299e-45
1.1673101823044e-33
-2.8925816853642e-32
-2.058521992467e-30
-4.61483216399e-29
-6.3317142711289e-28
-6.2840351269903e-27
-4.8819311133213e-26
-3.1100268412697e-25
-1.6752858062817e-24
-7.7987219612416e-24
-3.1887057479246e-23
-1.1596023692647e-22
-3.7882686709086e-22
-1.1208175054543e-21
-3.0234855417819e-21
-7.4782548987571e-21
-1.7039954750097e-20
-3.5912817252731e-20
-7.0243615603723e-20
-1.2786809013186e-19
-2.1712805307652e-19
-3.4455585854478e-19
-5.1165805517677e-19
-7.1162593750879e-19
-9.2729847662044e-19
-1.1317838492991e-18
-1.2926028277574e-18
-1.3790420072471e-18
-1.3708159544895e-18
-1.26476498787e-18
-1.0762838008601e-18
-8.3432878347969e-19
-5.7236360746632e-19
-3.1988836863441e-19
-9.8179278749571e-20
7.961449682031e-20
2.0666015565617e-19
2.814430812053e-19
3.0790461863347e-19
2.9529829433909e-19
2.5654006651622e-19
2.0526425668464e-19
1.5288197071639e-19
1.0686072233627e-19
7.0582850543349e-20
4.4324374139805e-20
2.6603905110771e-20
1.5328637240819e-20
8.5065142400284e-21
4.5565637812769e-21
2.3585853806703e-21
1.1800716569374e-21
5.705017003585e-22
2.6631503181132e-22
1.1994117381422e-22
5.207521570268e-23
2.1781659988367e-23
8.7724345885925e-24
3.4005926279044e-24
1.268481295071e-24
4.5523731523807e-25
1.571703280214e-25
5.2197421552152e-26
1.6674073518532e-26
5.1228319932365e-27
1.5135713326391e-27
4.2998324980459e-28
1.1742690818519e-28
3.0820605561973e-29
7.7721229018903e-30
1.8823812332812e-30
4.376894776654e-31
9.7659118802054e-32
2.0898797855244e-32
4.2868747413802e-33
8.4235518765965e-34
1.5844645015429e-34
2.8508409852737e-35
4.9023936302911e-36
8.0500531686879e-37
1.2610210405702e-37
1.882438667911e-38
2.6748364752716e-39
3.6133646410192e-40
4.6342289477214e-41
5.6344903992234e-42
6.4840217714595e-43
7.0498735268804e-44
7.2280900885465e-45
6.9733646801966e-46
6.3155127005661e-47
5.3552127944272e-48
4.2390233579589e-49
3.1220314664976e-50
2.2739572487369e-51
0
0
0
0
3.8415946296657e-44
3.5425881115364e-33
-4.5581732527643e-32
-4.5040222106693e-30
-1.0450474444074e-28
-1.4440723256975e-27
-1.4315229722497e-26
-1.1068428636855e-25
-7.0046292156811e-25
-3.7443378672723e-24
-1.7286583648784e-23
-7.0077424573024e-23
-2.5267571725443e-22
-8.1872104109017e-22
-2.4040936380221e-21
-6.4420816499057e-21
-1.5843180967226e-20
-3.5926515682887e-20
-7.5395314810021e-20
-1.4684624711438e-19
-2.6600515349703e-19
-4.4884438632706e-19
-7.0626321777428e-19
-1.0371858221546e-18
-1.4223359340838e-18
-1.8218056534898e-18
-2.1792783819467e-18
-2.4341942913018e-18
-2.5399614914535e-18
-2.4816165861039e-18
-2.2827753986053e-18
-1.994576438193e-18
-1.670618094339e-18
-1.3439138007314e-18
-1.0219954522035e-18
-7.0170060431641e-19
-3.8892739932734e-19
-1.0624809678916e-19
1.1624492160869e-19
2.5736786154884e-19
3.1551288464045e-19
3.0766562527948e-19
2.6007100395737e-19
1.977716603295e-19
1.3824304212292e-19
9.0165497621178e-20
5.5509672477324e-20
3.255453428027e-20
1.8316713796667e-20
9.9372059719681e-21
5.2141817171249e-21
2.6495870560517e-21
1.3038403094718e-21
6.2078374776442e-22
2.8560765178461e-22
1.2680395187085e-22
5.4264365259114e-23
2.2361799580364e-23
8.8677041956351e-24
3.382423908223e-24
1.2406035065899e-24
4.374761595322e-25
1.4830371523734e-25
4.8328133297823e-26
1.5138170413234e-26
4.5576228237184e-27
1.3186991512379e-27
3.6662853004665e-28
9.7923793726329e-29
2.511977988194e-29
6.1868332770926e-30
1.4624470868795e-30
3.3163463805655e-31
7.2109220490724e-32
1.5025543393004e-32
2.9985329076087e-33
5.7270392807137e-34
1.0460905405747e-34
1.8258765700705e-35
3.0426380867647e-36
4.8359963361696e-37
7.3235595422778e-38
1.0555128642168e-38
1.4460101358325e-39
1.8804404509813e-40
2.3178718360078e-41
2.7037268246852e-42
2.9793047991986e-43
3.095316457882e-44
3.0255588200682e-45
2.775806231755e-46
2.3840372037757e-47
1.9111798245891e-48
1.4253671147275e-49
9.8535174584834e-51
6.677855472846e-52
0
0
0
0
1.3937358166959e-43
9.3469890488827e-33
-3.4665231417122e-32
-8.3728990286978e-30
-2.04682619582e-28
-2.8632797606979e-27
-2.8416195274956e-26
-2.1894022285469e-25
-1.3774499673316e-24
-7.3106759169638e-24
-3.3488785493143e-23
-1.346845390427e-22
-4.8197848047054e-22
-1.5514809118169e-21
-4.5326810022289e-21
-1.2106413145314e-20
-2.9731497011292e-20
-6.7423254106369e-20
-1.4160156168897e-19
-2.7593232291678e-19
-4.9948736631797e-19
-8.4066283654619e-19
-1.3167568260515e-18
-1.9216641986507e-18
-2.6162238039524e-18
-3.3262431219804e-18
-3.9540405812917e-18
-4.4094986497624e-18
-4.6551590845855e-18
-4.7316109569695e-18
-4.7180675541539e-18
-4.638216804384e-18
-4.4070959911235e-18
-3.902064751787e-18
-3.1012055284058e-18
-2.1394606887212e-18
-1.2245497733144e-18
-5.0946997387505e-19
-3.843803495501e-20
2.2187790308551e-19
3.2937628752107e-19
3.3770269635538e-19
2.9049941874091e-19
2.215577325264e-19
1.5375980565967e-19
9.8821340980683e-20
5.9666305976803e-20
3.4251558814543e-20
1.8870474896179e-20
1.0042524961138e-20
5.1808149970123e-21
2.5936510440392e-21
1.2591970856986e-21
5.9189583315522e-22
2.6886698587607e-22
1.1781315533565e-22
4.9725550411325e-23
2.0194168825201e-23
7.8852538613862e-24
2.9590514222378e-24
1.0669085991056e-24
3.6956114262902e-25
1.2297208413751e-25
3.9307498446759e-26
1.2069158796972e-26
3.559444733893e-27
1.0081904839306e-27
2.7421174938261e-28
7.1600345576056e-29
1.7943435041081e-29
4.3142587090655e-30
9.9480598059668e-31
2.1988537199626e-31
4.6563611667487e-32
9.4412187483332e-33
1.8316846450589e-33
3.3977800916264e-34
6.0215968922694e-35
1.0186324706471e-35
1.6432210740974e-36
2.5251868590759e-37
3.6924675757187e-38
5.1313152649243e-39
6.7677605191451e-40
8.4591748121946e-41
1.0004167431874e-41
1.1174813062665e-42
1.1767023498788e-43
1.1655589689072e-44
1.0834737056461e-45
9.4271568938145e-47
7.6551535645104e-48
5.7826517559763e-49
4.0489378708914e-50
2.6176877665171e-51
1.64603375907e-52
0
0
0
0
4.2907078460337e-43
2.176397675535e-32
7.6127977688655e-32
-1.3112563560836e-29
-3.4847015067726e-28
-4.9741048602815e-27
-4.958815425424e-26
-3.8141253418633e-25
-2.3882787651314e-24
-1.2595602428899e-23
-5.729413722249e-23
-2.2882819584623e-22
-8.1393710945918e-22
-2.6088171350944e-21
-7.6077577373812e-21
-2.0338838973432e-20
-5.0120697880671e-20
-1.142306739076e-19
-2.4117019784379e-19
-4.7196025984662e-19
-8.565300940542e-19
-1.4431061989831e-18
-2.2616043435238e-18
-3.3052861359747e-18
-4.5152156580796e-18
-5.774247442857e-18
-6.9192436459078e-18
-7.7882485329083e-18
-8.2746956117528e-18
-8.3309767943426e-18
-8.024100509606e-18
-7.6120301622058e-18
-7.3522013549238e-18
-7.1349175184446e-18
-6.4960963434008e-18
-5.139044222738e-18
-3.3262284026211e-18
-1.6449006375582e-18
-4.9776859844725e-19
9.1486162474773e-20
3.0870831480652e-19
3.3821895287767e-19
2.8989465590697e-19
2.178909158232e-19
1.4862024538877e-19
9.3703691889272e-20
5.5458602002142e-20
3.1234896350768e-20
1.6920812652283e-20
8.8778567008272e-21
4.5254608231627e-21
2.2416540322543e-21
1.0772703504469e-21
5.0107242265224e-22
2.250368812399e-22
9.7387105849463e-23
4.0548922193368e-23
1.6226822895093e-23
6.2371013756616e-24
2.3018260309385e-24
8.1551422570901e-25
2.7735598732947e-25
9.0550346438622e-26
2.8378646975918e-26
8.5375720133266e-27
2.4654231647712e-27
6.8330114554079e-28
1.8172662623209e-28
4.6366507299722e-29
1.1345776144064e-29
2.6616042213353e-30
5.9832680631768e-31
1.2882384709202e-31
2.6550004566002e-32
5.2343326264737e-33
9.8644670705348e-34
1.7756484727784e-34
3.0502374404457e-35
4.9956352588623e-36
7.7925194664546e-37
1.1563905265716e-37
1.6305575862846e-38
2.1816757587959e-39
2.76586505529e-40
3.3171369053563e-41
3.7568651369563e-42
4.0103314073509e-43
4.0262816923185e-44
3.7929429044991e-45
3.3439899712316e-46
2.7511563442049e-47
2.1054396934405e-48
1.493647827189e-49
9.7880351861804e-51
5.9071330272676e-52
3.4587808768907e-53
0
0
0
0
1.1441833868825e-42
4.5242586429765e-32
4.1953677487166e-31
-1.6712855179642e-29
-5.1460025275795e-28
-7.5934761528716e-27
-7.6440851461554e-26
-5.8855093690411e-25
-3.6741296279225e-24
-1.9279477076386e-23
-8.7188318673849e-23
-3.4631209943835e-22
-1.2268737581008e-21
-3.9267671770335e-21
-1.1473607503541e-20
-3.0839822778363e-20
-7.6605623994754e-20
-1.7615790410593e-19
-3.7494798582987e-19
-7.3831462768857e-19
-1.3456525409721e-18
-2.2764320600683e-18
-3.5955603834918e-18
-5.3410241646612e-18
-7.4943081796976e-18
-9.9244688128309e-18
-1.2335179882175e-17
-1.6485257905587e-17
-2.6188277726405e-17
-3.854101627646e-17
-4.0981612039996e-17
-2.7440984808487e-17
-6.7751038952317e-18
5.6624281388322e-18
1.0247932991534e-17
6.5990180517532e-18
2.4486881958835e-18
8.003024929691e-19
4.4329617434639e-19
3.9582758073644e-19
3.6598698897357e-19
3.1962235419735e-19
2.5666153041882e-19
1.8739311142259e-19
1.2499782090485e-19
7.7214302602356e-20
4.4889183333385e-20
2.4923427878e-20
1.3358819341681e-20
6.9537108659596e-21
3.5213508403161e-21
1.7327994621134e-21
8.2644129742766e-22
3.8092454770623e-22
1.6924292065573e-22
7.2337814149262e-23
2.9703576524808e-23
1.1707673835215e-23
4.4273994787613e-24
1.6060306210117e-24
5.5881074800775e-25
1.865065614255e-25
5.9712311029156e-26
1.8339550032874e-26
5.4033733562448e-27
1.5270894530601e-27
4.1393329346193e-28
1.0759087480997e-28
2.6809052550698e-29
6.4017546284603e-30
1.464359372174e-30
3.2071263387168e-31
6.7214340583507e-32
1.3471370575864e-32
2.5802407597101e-33
4.7192079610091e-34
8.2350475588654e-35
1.3697552885281e-35
2.1694686224141e-36
3.2682104449056e-37
4.6771506630216e-38
6.3502005581269e-39
8.1676074476116e-40
9.9359806191678e-41
1.1412361986267e-41
1.2352490798801e-42
1.257268357289e-43
1.2005498896511e-44
1.072726063725e-45
8.9437030731058e-47
6.9361848270968e-48
4.9875632783786e-49
3.3151057443592e-50
2.033145990454e-51
1.1533940637006e-52
6.4852826383603e-54
0
0
0
0
2.6847230760542e-42
8.4735617104139e-32
1.1838658025315e-30
-1.5378930017482e-29
-6.5003316910744e-28
-1.015448007083e-26
-1.0411183400044e-25
-8.0589366148932e-25
-5.0290425042667e-24
-2.6308292699019e-23
-1.1849979180446e-22
-4.6906749491564e-22
-1.659510619846e-21
-5.3223905852712e-21
-1.5646477878311e-20
-4.246273026246e-20
-1.0669942173344e-19
-2.4813631389157e-19
-5.3305006021057e-19
-1.0567010097192e-18
-1.9355717321235e-18
-3.2955412085282e-18
-5.2815817995294e-18
-8.0708623456686e-18
-1.1762823711304e-17
-1.606948412038e-17
-2.0297587973067e-17
-2.8500186656913e-17
-4.7855839932429e-17
-7.1374301813017e-17
-5.3762736502767e-17
1.9549425274218e-17
2.6020852139652e-18
-6.9388939039072e-17
0.004448105797671
-3.7730235602496e-17
-8.2420166969917e-18
-2.4302161405641e-18
4.244111650314e-19
3.4121304385027e-19
2.919607809161e-19
2.4843822611832e-19
1.958829500052e-19
1.4009005480569e-19
9.1553095231542e-20
5.5606346387076e-20
3.1952844554234e-20
1.7625027776996e-20
9.4182625574416e-21
4.8944301542484e-21
2.4731688175239e-21
1.2122063504727e-21
5.7450111829806e-22
2.6248136838875e-22
1.1533766108593e-22
4.8661916108818e-23
1.9692618951491e-23
7.6395963604947e-24
2.8404500760207e-24
1.0121320482291e-24
3.456597857664e-25
1.1315297456011e-25
3.550811390878e-26
1.068206256364e-26
3.0806634104373e-27
8.5164897665476e-28
2.2565115111204e-28
5.7289518575177e-29
1.3932864587071e-29
3.2446454562503e-30
7.2319756602911e-31