/*--------------------------------*- C++ -*----------------------------------*\
  =========                 |
  \\      /  F ield         | OpenFOAM: The Open Source CFD Toolbox
   \\    /   O peration     | Website:  https://openfoam.org
    \\  /    A nd           | Version:  7
     \\/     M anipulation  |
\*---------------------------------------------------------------------------*/
FoamFile
{
    version     2.0;
    format      ascii;
    class       volScalarField;
    location    "0.7";
    object      alpha.water;
}
// * * * * * * * * * * * * * * * * * * * * * * * * * * * * * * * * * * * * * //

dimensions      [0 0 0 0 0 0 0];

internalField   nonuniform List<scalar> 
6000
(
0
0
0
0
0
0
0
0
0
0
0
0
0
0
0
0
0
0
0
0
0
0
0
0
0
0
0
0
0
0
0
0
0
0
0
0
0
0
0
0
0
0
0
0
0
0
0
0
0
0
0
0
0
0
0
0
0
0
0
0
0
0
0
0
0
0
0
0
0
0
0
0
0
0
0
0
0
0
0
0
0
0
0
0
0
0
0
0
0
0
0
0
0
0
0
0
0
0
0
0
0
0
0
0
0
0
0
0
0
0
0
0
0
0
0
0
0
0
0
0
0
0
0
0
0
0
0
0
0
0
0
0
0
0
0
0
0
0
0
0
0
0
0
0
0
0
0
0
0
0
0
0
0
0
0
0
0
0
0
0
0
0
0
0
0
0
0
0
0
0
0
0
0
0
0
0
0
0
0
0
0
0
0
0
0
0
0
0
0
0
0
0
0
0
0
0
0
0
0
0
0
0
0
0
0
0
0
0
0
0
0
0
0
0
0
0
0
0
0
0
0
0
0
0
0
0
0
0
0
0
0
0
0
0
0
0
0
0
0
0
0
0
0
0
0
0
0
0
0
0
0
0
0
0
0
0
0
0
0
0
0
0
0
0
0
0
0
0
0
0
0
0
0
0
0
0
0
0
0
0
0
0
0
0
0
0
0
0
0
0
0
0
0
0
0
0
0
0
0
0
0
0
0
0
0
0
0
0
0
0
0
0
0
0
0
0
0
9.9378145893646e-45
4.1435219876813e-44
1.5312344327533e-43
5.4679855829466e-43
1.7760106391511e-42
1.7336363928523e-41
7.5012621010183e-41
3.0673913851473e-40
1.6956768923906e-39
7.2482842237452e-39
9.2142197979903e-39
9.2142197507658e-39
7.5191337159055e-39
3.8727644521929e-39
1.0129912040389e-39
1.4542150729696e-40
1.8005468904367e-41
1.3736454075644e-42
3.4321965771611e-43
3.5981065754458e-44
6.460024760911e-45
1.323317572305e-45
2.300841508592e-46
4.4117804059438e-47
9.9925814301022e-48
1.5283337670423e-48
2.8722703158555e-49
9.7357335916309e-50
1.4222398762373e-50
2.0598826347349e-51
3.8161589369265e-52
1.4786924410659e-52
2.9473635749454e-53
2.8289273424686e-54
6.390592915966e-55
9.5882639161897e-56
2.9034788389336e-56
3.6167625371224e-57
6.5374490268628e-58
2.107873490114e-58
2.5015557492119e-59
7.5427653477184e-60
9.211259043804e-61
1.6601659611653e-61
5.334379668566e-62
6.3522838225205e-63
1.8277979422878e-63
2.3196799400898e-64
4.1990272711311e-65
1.3483817803177e-65
1.6067107380049e-66
4.6187725657261e-67
5.8673850624814e-68
1.0557097883873e-68
4.3259935184219e-69
4.252872701066e-70
1.1986250569783e-70
1.5151157377371e-71
2.7415293279975e-72
8.2462902732518e-73
1.0489198639412e-73
1.2388345976768e-74
3.4610257533124e-75
6.6717851428198e-76
1.3366662621441e-76
5.2193911084404e-77
1.2714889610904e-77
2.7026570969706e-78
4.5802406947062e-79
4.2186761473525e-80
7.2366836682563e-81
2.9178416228613e-81
6.3817411646027e-82
5.9028327699374e-83
1.3261820660355e-83
4.5008031454694e-84
1.0910186120921e-84
2.3361441350889e-85
4.7818713733415e-86
3.72605030655e-87
1.3871856561873e-87
3.0646717039449e-88
1.222151246167e-88
0
0
0
0
0
0
0
0
0
1.0708772710302e-31
1.0947644252538e-48
0
3.192692365261e-32
-1.0947644252538e-48
0
0
-4.2764235361475e-51
1.6380992792229e-34
4.6332730699875e-44
1.2391373177367e-43
4.4446830411053e-43
1.493471189222e-42
1.0484860201344e-36
8.3531525826572e-41
2.4202939089579e-40
1.2342063144842e-39
3.1418444888218e-39
3.6841000378267e-39
3.4620491115794e-39
3.4187967163839e-39
3.8284312977973e-39
1.9036457646114e-40
1.3779897212103e-40
1.3132738341008e-40
7.1577507718867e-42
3.6843209118589e-41
2.5233314606092e-43
4.7469253991823e-44
3.0959408244456e-44
1.7053934497537e-45
3.240152950804e-46
2.0624457203259e-45
1.1552429669496e-47
2.1185098410392e-48
4.3248787136347e-49
8.1897797480508e-50
1.5380166070596e-50
2.9027570749151e-51
2.5462724421078e-49
2.3700929862168e-50
2.1385223843136e-53
1.0195171944262e-51
7.6054971933536e-55
7.2535141013333e-52
6.4881732238436e-56
5.2475186542107e-57
9.4156319476624e-54
1.9359124409646e-58
7.8874751422333e-55
7.0986194435958e-60
1.3757171259111e-59
1.2950022238338e-56
4.9163354480704e-62
1.1073511035913e-57
1.7958728295679e-63
3.3742272662106e-64
1.6750587299372e-59
1.244169940694e-65
1.2717224189067e-60
4.5441289633977e-67
2.1067368219608e-65
5.2353494297374e-62
3.3612125419242e-66
2.6870592296688e-63
1.1714636126338e-70
2.2009324451487e-71
9.2768185604747e-65
5.8703613887048e-69
1.4824608967929e-73
1.9411299252418e-70
5.3491257918671e-75
1.9123210444236e-69
1.2902438292435e-68
1.2771644348855e-69
1.4855048045251e-70
4.067065677065e-70
2.5733445245591e-74
5.809346765183e-80
3.5918978211937e-73
1.8104950338523e-73
4.3727282002418e-82
2.1005416802236e-75
1.1840119944997e-74
9.5823179914609e-76
1.0854034825475e-76
2.9931899130971e-76
1.876037517274e-80
2.7382195719497e-77
9.4188661797889e-79
1.3444219208408e-78
0
0
0
0
0
0
0
4.2159624880874e-17
1.1971802633307e-15
1.5242941493332e-14
1.0742185835039e-13
5.0033290278425e-13
2.6087493538704e-12
2.4742086113881e-11
1.7687365581625e-10
5.9998340550895e-10
1.3352044812458e-09
2.7415192911869e-09
4.8723846561098e-09
6.2270732235625e-09
6.154127659227e-09
5.4570218804078e-09
3.9754609445595e-09
1.965512068624e-09
5.2290703681622e-10
5.520202259065e-11
3.5545980037875e-12
1.1889032973717e-12
6.3443579467835e-13
2.9710350538354e-13
1.1746937303186e-13
4.2417889438748e-14
1.4867459723009e-14
5.1677436657445e-15
1.7717531284823e-15
5.8295086987779e-16
1.7787325118791e-16
4.9465748673224e-17
1.2728467053283e-17
3.1488276466893e-18
7.7357718880834e-19
1.9047453354641e-19
4.6730564111915e-20
1.135040462359e-20
2.7253405487626e-21
6.4790758476882e-22
1.5278399408536e-22
3.5773937058114e-23
8.3214971914527e-24
1.9237502513303e-24
4.4216177305061e-25
1.0108095058658e-25
2.2991468830591e-26
5.2048524780307e-27
1.1730448589681e-27
2.6326547661134e-28
5.8849815066013e-29
1.3105642246068e-29
2.9081441438387e-30
6.4312226182737e-31
1.4176228197885e-31
3.1151686310816e-32
6.8252020850388e-33
1.4911372743273e-33
3.2489205394613e-34
7.0603722259035e-35
1.5304800548858e-35
3.3096415703682e-36
7.1404648372679e-37
1.537095556596e-37
3.3017071091386e-38
7.0773706835009e-39
1.5140200877682e-39
3.2325593142728e-40
6.8888041929264e-41
1.4653774383612e-41
3.1116302558452e-42
6.5960288933513e-43
1.3959031405305e-43
2.9493560373869e-44
6.2218323963769e-45
1.3105321040762e-45
2.7563442406672e-46
5.7888599563146e-47
1.2140680107262e-47
2.5427241016483e-48
5.3183498036195e-49
1.1109398331509e-49
2.3176833590511e-50
4.8292641923979e-51
1.005041430026e-51
2.0891779604217e-52
4.3377770571616e-53
8.9964427476938e-54
1.8637856810306e-54
3.8571971367257e-55
7.9695019781993e-56
1.6597769383268e-56
3.0596209580529e-57
1.1202167214662e-57
0
0
0
0
0
0
3.9430904237519e-17
1.5678241435541e-15
2.8847289965552e-14
3.3324543058304e-13
2.5299260985495e-12
1.1563242729265e-11
3.2689845536664e-11
1.0333572515213e-10
8.0022409413121e-10
1.1495110220027e-08
5.7174043491468e-08
1.2461692595416e-07
2.0926536389329e-07
2.6057064354741e-07
2.5700723213908e-07
2.2814080338092e-07
1.6621256299669e-07
8.1903397834168e-08
2.1443107722887e-08
1.9622438114466e-09
5.1568486618022e-11
6.0117280427363e-12
4.8273745782112e-12
3.8124641326946e-12
2.1436667551344e-12
9.4147444888895e-13
3.7731637953226e-13
1.4591918362473e-13
5.5187815886306e-14
2.0233586381993e-14
6.9819853790075e-15
2.1933353972782e-15
6.1974642606029e-16
1.6120864120487e-16
4.0360201272288e-17
1.0054576649541e-17
2.5103191010157e-18
6.2374847834671e-19
1.5329580521274e-19
3.7226249989787e-20
8.947640506065e-21
2.1324205526801e-21
5.0440718343665e-22
1.1848701163703e-22
2.7652159339584e-23
6.4142123332848e-24
1.4794245293382e-24
3.394208346773e-25
7.7485882943813e-26
1.7606459759724e-26
3.9829197560072e-27
8.9725397031491e-28
2.0133003419816e-28
4.5005747184219e-29
1.0024744258288e-29
2.2253476033099e-30
4.9239007169435e-31
1.0861008805858e-31
2.3885730290274e-32
5.2380338707206e-33
1.1455386515724e-33
2.4986749358196e-34
5.4364100344192e-35
1.1799352597489e-35
2.5549726352706e-36
5.5199187626327e-37
1.1899579580698e-37
2.5598542434504e-38
5.4955851309425e-39
1.17748792372e-39
2.5180828086745e-40
5.3750234610614e-41
1.1452808488232e-41
2.4360609802193e-42
5.1728625631763e-43
1.0966332120621e-43
2.3211305669645e-44
4.9052889289298e-45
1.0350819087326e-45
2.1809584371542e-46
4.5888016661123e-47
9.6415393041527e-48
2.0230375543519e-48
4.2392267648279e-49
8.8717346446902e-50
1.8543133379363e-50
3.8710014935983e-51
8.0712671340135e-52
1.6809279909429e-52
3.4968304505833e-53
7.2621466275811e-54
1.5196236986732e-54
2.8249556288194e-55
1.0306857412357e-55
0
0
0
0
0
1.6697699788253e-17
9.3516258766315e-16
2.0873204206073e-14
2.7489461284708e-13
2.5309209293387e-12
1.7957403168788e-11
9.6306940141339e-11
3.1240184429713e-10
6.5610346231512e-10
2.5758556557554e-09
2.6514802078771e-08
3.7301547870235e-07
2.648164502381e-06
5.3740935360909e-06
6.2213638605781e-06
6.0399305709766e-06
5.3168381742838e-06
3.8832070838474e-06
1.9531433060737e-06
5.4013053947722e-07
5.5694617247608e-08
1.8092364751987e-09
1.9206783255505e-10
5.1223093287068e-11
1.1925525495437e-11
8.4176941301906e-12
6.3319422376015e-12
3.4333687631049e-12
1.5702726393926e-12
6.854119943675e-13
2.9065398399108e-13
1.1638643080462e-13
4.2244471256925e-14
1.3517036348344e-14
3.8345396545948e-15
1.0045609882799e-15
2.5541392573112e-16
6.4792776999257e-17
1.6432590518331e-17
4.1363942604198e-18
1.0286928795576e-18
2.5271693849509e-19
6.143480255517e-20
1.4801651458594e-20
3.5378444112779e-21
8.3938447596394e-22
1.9778425078539e-22
4.6305738789623e-23
1.077654980836e-23
2.4939990827937e-24
5.7416308885036e-25
1.3153206816895e-25
2.9992129521001e-26
6.8088360888748e-27
1.5393209477712e-27
3.4663173789478e-28
7.7763316311771e-29
1.7383058729579e-29
3.8725250066915e-30
8.5989438645156e-31
1.9034446389564e-31
4.2008453325797e-32
9.2445880693569e-33
2.0288149459639e-33
4.4406612679795e-34
9.6949728786693e-35
2.1114461516799e-35
4.5876063589088e-36
9.9449137467229e-37
2.1510899970753e-37
4.6429164444733e-38
1.0000648610327e-38
2.1498053604112e-39
4.6124422960512e-40
9.877552432296e-41
2.1114402725153e-41
4.5054956779317e-42
9.5976036206309e-43
2.0410826207965e-43
4.3336717186821e-44
9.1868848817518e-45
1.9445347499503e-45
4.1097540920962e-46
8.6733210980132e-47
1.8278498954704e-47
3.8467727531785e-48
8.0847796403481e-49
1.6969523568643e-49
3.557251575468e-50
7.44757652638e-51
1.5573994410829e-51
3.2510928319595e-52
6.8355672973765e-53
1.2810665267436e-53
4.6615929138453e-54
0
0
0
0
0
2.5111404003843e-16
9.2192870632519e-15
1.5740780085172e-13
1.6636026387529e-12
1.2312626241913e-11
7.1095479564322e-11
3.6292769377262e-10
1.6627139935204e-09
5.6863226352973e-09
1.6263917100741e-08
7.6353993046164e-08
6.9373230543674e-07
7.4591150990751e-06
6.5870740230724e-05
0.00011499256948
0.00011022024605722
9.5126155098825e-05
7.0971943369648e-05
3.7699247994786e-05
1.1640081410854e-05
1.4698685761565e-06
5.4451790643058e-08
4.4406048102662e-09
1.1471774248723e-09
2.2565730026988e-10
5.0933517114361e-11
1.4154746250868e-11
1.0493987232239e-11
7.8370269072463e-12
4.4405327483335e-12
2.2385964205737e-12
1.0561652784136e-12
4.5408683870575e-13
1.7177885507769e-13
5.619469191601e-14
1.6158654058394e-14
4.2861476293668e-15
1.1048509361709e-15
2.8420861097735e-16
7.3011586070148e-17
1.85930229219e-17
4.6743133010023e-18
1.1603321836062e-18
2.8492407955389e-19
6.9315616995473e-20
1.672247528494e-20
4.0032303096858e-21
9.5146635463307e-22
2.2462949531524e-22
5.2702339073274e-23
1.2293072780122e-23
2.8517826732821e-24
6.5817193453577e-25
1.5116702054853e-25
3.456093225874e-26
7.8673795398386e-27
1.7835588231624e-27
4.0275952963839e-28
9.0612164424642e-29
2.0313481965909e-29
4.5384615975435e-30
1.010702964758e-30
2.24382297771e-31
4.9666012655618e-32
1.0961939458904e-32
2.4127996945966e-33
5.2967099473331e-34
1.1598041073481e-34
2.5333577937114e-35
5.520512647865e-36
1.2002415763419e-36
2.6037405112042e-37
5.6363515084781e-38
1.2175859757915e-38
2.6250083681125e-39
5.6483040487422e-40
1.2130738444161e-40
2.6005333421952e-41
5.565019284071e-42
1.1888359499107e-42
2.5354153752357e-43
5.3984391710735e-44
1.147620449242e-44
2.435889300931e-45
5.162540372886e-46
1.0925283491906e-46
2.3087733905469e-47
4.8721940523645e-48
1.0267797706069e-48
2.1609892879885e-49
4.5423423330187e-50
9.5308258978922e-51
2.0134614022645e-51
3.803068399864e-52
1.3810881300569e-52
0
0
0
0
1.2485832829739e-31
1.7220494990198e-15
5.2632737114695e-14
7.696298746578e-13
7.0596165886675e-12
4.554447164926e-11
2.3253642127426e-10
1.1782787320303e-09
6.5938206667892e-09
3.2986173829562e-08
1.2580114509011e-07
4.1982916096997e-07
1.8841580959448e-06
1.354159300388e-05
0.0001150449115309
0.0008903537096612
0.001694335352918
0.0015294798466129
0.0011519963628458
0.00069030950687298
0.00024281381535776
3.6059445086941e-05
1.4469479513004e-06
9.638631563633e-08
2.4316910887376e-08
4.7321241017361e-09
9.0938649804544e-10
1.8370876990243e-10
4.3837856895087e-11
1.8044727948357e-11
1.3737014166478e-11
9.9561788660238e-12
5.8871418466667e-12
3.0626339662719e-12
1.4069346427905e-12
5.5212495736382e-13
1.8253672483241e-13
5.2372224630058e-14
1.3923392981426e-14
3.6329811029236e-15
9.4895167733466e-16
2.4687375496192e-16
6.3481948165389e-17
1.6098363589502e-17
4.0308380041567e-18
9.9836217841585e-19
2.4493003659923e-19
5.9571028620066e-20
1.4373144971067e-20
3.4422487161881e-21
8.1871841844821e-22
1.934790147223e-22
4.5448822277855e-23
1.0616063336309e-23
2.4666210269522e-24
5.7025776335736e-25
1.3121677334887e-25
3.0058387163786e-26
6.8564537646263e-27
1.5576937287467e-27
3.5253071858094e-28
7.9491635411368e-29
1.7861866017676e-29
4.0001776576641e-30
8.9297687456891e-31
1.9873154200944e-31
4.4097339419652e-32
9.7572361870834e-33
2.1530631661786e-33
4.7385561459996e-34
1.0402452277021e-34
2.2780569845352e-35
4.9770163136991e-36
1.0848847405805e-36
2.3596127049718e-37
5.1211939454109e-38
1.1091856868276e-38
2.3975489749889e-39
5.1723413812811e-40
1.1137515104016e-40
2.393837246489e-41
5.1360442016559e-42
1.1000496289699e-42
2.352154186284e-43
5.0212164198325e-44
1.0701891320693e-44
2.2773960210857e-45
4.8390512480891e-46
1.0266963587101e-46
2.1752032094406e-47
4.6020135600778e-48
9.7233461015194e-49
2.0506243177851e-49
4.3528321058079e-50
8.284740657458e-51
3.003996690122e-51
0
0
0
0
-9.1292228516669e-45
7.256087212177e-15
2.0224970179752e-13
2.6882304473573e-12
2.2415969251281e-11
1.3441505607212e-10
7.1549392295588e-10
4.3323449517017e-09
2.7574940673039e-08
1.5224984872356e-07
6.7869898135892e-07
2.5532667368284e-06
9.3259726711933e-06
4.0759211278778e-05
0.00023430046990726
0.0016490227674864
0.0090345134873274
0.023632510346918
0.022508330651783
0.014849009188053
0.0057024217347134
0.00072915445534128
2.4031987931645e-05
2.0322079965892e-06
5.2113033897787e-07
9.8522280597618e-08
1.8615238388367e-08
3.5325164578086e-09
6.8448000415282e-10
1.4546359588856e-10
3.8092713689638e-11
2.4478531930528e-11
2.0081599575533e-11
1.416615111392e-11
8.0844100105455e-12
3.7951272281649e-12
1.4588551696493e-12
4.6747026864117e-13
1.3289455445535e-13
3.5873537929356e-14
9.5591480216598e-15
2.5347704685523e-15
6.6582112858516e-16
1.7255443198967e-16
4.4099039415741e-17
1.1129686185765e-17
2.7783445243977e-18
6.8684382638747e-19
1.6829396083629e-19
4.0899180669941e-20
9.8641074695605e-21
2.3622882284853e-21
5.6201659238503e-22
1.3289007248427e-22
3.1241300348699e-23
7.3047933653889e-24
1.6992750303484e-24
3.9338556758606e-25
9.065323887225e-26
2.0799836652165e-26
4.7527097229751e-27
1.0817153496162e-27
2.4527536517565e-28
5.5416239251198e-29
1.2477568263801e-29
2.8002412665637e-30
6.2645807944257e-31
1.3972502590414e-31
3.107370225319e-32
6.8912209775971e-33
1.5241528809227e-33
3.362266744407e-34
7.3985514866345e-35
1.6240877225354e-35
3.556769846474e-36
7.7717506340585e-37
1.694455990243e-37
3.6865484514162e-38
8.004167241079e-39
1.7343862879066e-39
3.7508920340253e-40
8.0966748873516e-41
1.7445581094458e-41
3.7522597797918e-42
8.0565700007006e-43
1.7269408538727e-43
3.6956770364794e-44
7.8962024111738e-45
1.6844879347553e-45
3.5880615687265e-46
7.6314938490907e-47
1.6208644377639e-47
3.4360929421492e-48
7.3291852026267e-49
1.4055815974752e-49
5.0907583136491e-50
0
0
0
0
1.3684555315672e-49
2.2008761053643e-14
5.7777774490974e-13
7.0984791155562e-12
5.5211250226143e-11
3.3637499770014e-10
2.1588759519203e-09
1.5446473269924e-08
1.0671956093185e-07
6.4639837920834e-07
3.1708739012604e-06
1.2848653411716e-05
4.8262063647072e-05
0.00018844189555841
0.00082811743675134
0.0042935671555423
0.024060188965265
0.12429362691749
0.3648069918739
0.34395864500193
0.14061124857651
0.018386364416282
0.00049083921702367
5.0540764860321e-05
1.1325559809397e-05
2.1362341882841e-06
4.0255053337102e-07
7.588848485705e-08
1.4331348134576e-08
2.7316990917392e-09
5.3581421363397e-10
1.2331490437152e-10
4.199844377611e-11
3.9058941078742e-11
3.2896782117055e-11
1.8800913772051e-11
8.3023135028935e-12
3.062950616609e-12
9.6855191903455e-13
2.7767537148752e-13
7.6276636506325e-14
2.0659895810144e-14
5.5431283547454e-15
1.4684921572464e-15
3.8340487576295e-16
9.8709904764343e-17
2.5098798487265e-17
6.311974943963e-18
1.5717167823694e-18
3.8783330999701e-19
9.4903687470175e-20
2.3043959317287e-20
5.5552812160625e-21
1.3302762794248e-21
3.1655766919172e-22
7.488715419243e-23
1.7617998677372e-23
4.1232265875235e-24
9.6022529167849e-25
2.2257543733185e-25
5.1363263069562e-26
1.1803037912505e-26
2.7013930536672e-27
6.1590643121025e-28
1.3991003134756e-28
3.1670789393233e-29
7.1451071058074e-30
1.606785599643e-30
3.6021516232714e-31
8.051426819124e-32
1.7944822188701e-32
3.9884721814414e-33
8.8413377390668e-34
1.9548515933906e-34
4.3115366636781e-35
9.4865610594355e-36
2.0824661450077e-36
4.5611219760497e-37
9.9682864163592e-38
2.1739689910569e-38
4.7314873069758e-39
1.0277314405665e-39
2.2280457782402e-40
4.8211959263529e-41
1.0413440970513e-41
2.2452469849998e-42
4.8326459818762e-43
1.0384283839705e-43
2.2277050395348e-44
4.771407491558e-45
1.0203742570142e-45
2.1788467682031e-46
4.6435749748515e-47
9.9542623470478e-48
1.9236668041214e-48
6.9617339238613e-49
0
0
0
0
0
4.2817214287828e-14
1.1016155322864e-12
1.3229304859083e-11
1.0201298422766e-10
6.9897412688906e-10
5.5820421354445e-09
4.5330964614297e-08
3.3329445668053e-07
2.1923793162806e-06
1.2624320917166e-05
5.8749648657451e-05
0.00023107113335087
0.0008886969618762
0.0036557163648292
0.016780665784976
0.09143524144819
0.46827512354141
0.87842269732041
0.90591581062472
0.80931906970797
0.3889880158492
0.053389138584186
0.0017701981066607
0.00021196486154559
4.6587142478556e-05
8.7815272983277e-06
1.6550656840491e-06
3.1197089232912e-07
5.8859212899174e-08
1.1147735265987e-08
2.1442687699532e-09
4.4392915527128e-10
1.1651166999386e-10
8.1369013896378e-11
6.1484395447551e-11
3.5456548743937e-11
1.5143953035224e-11
5.3793506391108e-12
1.6795498683936e-12
4.8549710097662e-13
1.3547250823464e-13
3.7193787542618e-14
1.0076755110452e-14
2.6899152326924e-15
7.0727253096039e-16
1.8339018978964e-16
4.6966240904369e-17
1.1895842205426e-17
2.9829906265955e-18
7.4116817543582e-19
1.8259925038506e-19
4.4634484441377e-20
1.0831078202329e-20
2.6104495190553e-21
6.2515922974796e-22
1.4882199272289e-22
3.5228737600537e-23
8.295035949427e-24
1.9433709344536e-24
4.5313048393297e-25
1.0517806167383e-25
2.4308430140196e-26
5.5950821644721e-27
1.28278829145e-27
2.9300670847659e-28
6.6687410862157e-29
1.5125809609083e-29
3.4194970205647e-30
7.7060354089141e-31
1.7313212095598e-31
3.8783908519465e-32
8.6636150337736e-33
1.9300296093782e-33
4.2883193111585e-34
9.5040192829883e-35
2.1011697034232e-35
4.6342896356482e-36
1.0197793040196e-36
2.2390368817369e-37
4.9054381984898e-38
1.0724668679232e-38
2.3399475030694e-39
5.0953012159346e-40
1.1073867065471e-40
2.4022461390756e-41
5.2017140875208e-42
1.124364873087e-42
2.4261631498411e-43
5.2264161570212e-44
1.1240274102909e-44
2.4136212553563e-45
5.1724438019432e-46
1.1145780829222e-46
2.170831728476e-47
7.8528391457118e-48
0
0
0
0
0
4.8075023302256e-14
1.2362879562148e-12
1.4482480105e-11
1.1357227172952e-10
9.1488229407564e-10
8.9294729866807e-09
8.4851631399049e-08
7.2061577491608e-07
5.4794638278397e-06
3.6255753594002e-05
0.0002094040470999
0.0010008701714482
0.0040550763604581
0.016532236753185
0.078870335062976
0.40448528864707
0.86590432498086
0.98199689498967
0.99330086710792
0.99015631291659
0.9308499307923
0.57983725487722
0.10210936653832
0.0046026954334364
0.00053302257267052
0.00012063161637941
2.3118129614693e-05
4.4253972987507e-06
8.4655287387278e-07
1.6191817295564e-07
3.102761850688e-08
6.0063979243849e-09
1.2155768851343e-09
2.9951333525731e-10
1.5437557998128e-10
1.0309529133815e-10
5.6367096497113e-11
2.3065316400961e-11
7.9520516852226e-12
2.4594384883246e-12
7.1550349690831e-13
2.0211929818085e-13
5.6105495270447e-14
1.5328000720892e-14
4.1205228940276e-15
1.0908599698916e-15
2.8483991733561e-16
7.3468396243965e-17
1.8741215256192e-17
4.732779448811e-18
1.184162828276e-18
2.9375921766005e-19
7.2298160921381e-20
1.766271536957e-20
4.2854239415002e-21
1.0330583441874e-21
2.4752538789852e-22
5.8969963344803e-23
1.3973206673218e-23
3.2941302052483e-24
7.7282157465103e-25
1.8047464297003e-25
4.196118693564e-26
9.7154410780039e-27
2.2404862241971e-27
5.1471023389758e-28
1.1781333365924e-28
2.6872165235902e-29
6.1086957014554e-30
1.3841685246169e-30
3.1266371546004e-31
7.0414825290572e-32
1.5812329955739e-32
3.5409274106887e-33
7.9080475596603e-34
1.7615377905935e-34
3.9140131806358e-35
8.6755179493504e-36
1.9184243639997e-36
4.2325461554533e-37
9.3174376435335e-38
2.046716037029e-38
4.4865462378548e-39
9.8149032816913e-40
2.1429097470645e-40
4.6697028658251e-41
1.0156980090551e-41
2.205217474992e-42
4.7793663198488e-43
1.0340469067858e-43
2.2335310004354e-44
4.8145038072751e-45
1.0431666174631e-45
2.0482585620435e-46
7.4091247338687e-47
0
0
0
1.7004287431589e-44
4.3479492068613e-33
4.4817714655047e-14
1.157783008236e-12
1.3609005014807e-11
1.0676651535268e-10
8.7235769656211e-10
8.8314827224067e-09
8.824514978545e-08
8.3026621003688e-07
7.3841672324777e-06
6.282403295424e-05
0.00049006629109025
0.0030921441819953
0.01608553288056
0.077099075668462
0.38299352576658
0.84453803095352
0.9767358733467
0.99356896618828
0.99667497157832
0.99727491661137
0.99678068265586
0.95903621608296
0.63157442968134
0.11455276864262
0.0064041308601439
0.00090666072701076
0.00019945678677627
3.9195644837036e-05
7.6899018812442e-06
1.5066877490081e-06
2.9498346950882e-07
5.7816592916554e-08
1.1417962310606e-08
2.3450039927811e-09
5.7373141966036e-10
2.6002834443485e-10
1.541943705034e-10
7.697016886022e-11
2.9670066757722e-11
9.8840454803881e-12
3.0275967654684e-12
8.8615842199162e-13
2.5291291390223e-13
7.0836893149923e-14
1.9494919587007e-14
5.2767473836777e-15
1.4068528409637e-15
3.7005287087196e-16
9.6162690257643e-17
2.4715020158598e-17
6.2882506177255e-18
1.5851096034281e-18
3.9614238976182e-19
9.8213533533344e-20
2.4168738603287e-20
5.9061964719639e-21
1.4339025441241e-21
3.4598476078926e-22
8.2998726038089e-23
1.9801608655145e-23
4.6996911070858e-24
1.1099218334658e-24
2.6090035713091e-25
6.105380142602e-26
1.4226418747879e-26
3.3014575386382e-27
7.6316688497074e-28
1.7575513769409e-28
4.0330854835893e-29
9.2229421548176e-30
2.102141652352e-30
4.7760519323265e-31
1.0817863196552e-31
2.4430203296065e-32
5.5013694048326e-33
1.235421287066e-33
2.7669413258379e-34
6.181064670076e-35
1.3773393240182e-35
3.0617301738461e-36
6.7900573247453e-37
1.5024193452613e-37
3.3170287271719e-38
7.307610303631e-39
1.6065566441404e-39
3.5248158809029e-40
7.7182818366484e-41
1.6868312183168e-41
3.6796919403608e-42
8.0123609853012e-43
1.7416068651046e-43
3.7776108490475e-44
8.2333766404131e-45
1.6303677873179e-45
5.9001220081614e-46
0
0
0
1.957558236799e-43
1.142284490516e-32
3.3072813895934e-14
8.7526591484568e-13
1.0487516757e-11
8.1701992865075e-11
6.5213901263817e-10
6.8145126879043e-09
7.2797866128194e-08
7.2495194960392e-07
6.809965481834e-06
6.1936691910001e-05
0.00053850322148614
0.0048839957316465
0.044049844140466
0.31200442564109
0.82227195421315
0.97714776012332
0.99338768932932
0.99677333330954
0.99741569292229
0.99758741993422
0.99760360988847
0.9965297916054
0.95455098707545
0.56074720508331
0.087351559185682
0.0052574485023849
0.00086455698228402
0.00019632548985734
4.0086547018207e-05
8.1978051203474e-06
1.6774763887014e-06
3.4356625433332e-07
7.0672300067108e-08
1.475123505496e-08
3.2426461511843e-09
8.4425533827273e-10
3.729106748661e-10
1.9560621566798e-10
8.6683254102899e-11
3.1280534916544e-11
1.0130849419205e-11
3.0921359338975e-12
9.1233498259627e-13
2.6292805011515e-13
7.4273745126703e-14
2.0602873653403e-14
5.6215656691186e-15
1.5113201171349e-15
4.0093265017936e-16
1.0508544143424e-16
2.7240974202069e-17
6.990345145398e-18
1.7770780301092e-18
4.4785848025964e-19
1.1195962999082e-19
2.7777888307678e-20
6.8432151617198e-21
1.6746704538818e-21
4.0726172664561e-22
9.8456436230261e-23
2.3668919505693e-23
5.6598135702433e-24
1.3465739835427e-24
3.1883678204302e-25
7.5147431271408e-26
1.763426717279e-26
4.1208011272502e-27
9.5910093936799e-28
2.2237066303568e-28
5.1367498607565e-29
1.1823877750371e-29
2.7123820205485e-30
6.2017801717865e-31
1.4135406245407e-31
3.211999007505e-32
7.2771888448684e-33
1.6440551641991e-33
3.704030877575e-34
8.3229454924214e-35
1.8653505753105e-35
4.170226774495e-36
9.3005308971639e-37
2.0693602359511e-37
4.5938272269718e-38
1.0175409496477e-38
2.2490285444658e-39
4.9605494194407e-40
1.0918954994023e-40
2.398681240305e-41
5.2592785338916e-42
1.1509968031961e-42
2.513414702402e-43
5.5130980213221e-44
1.101462715672e-44
3.990397641113e-45
0
0
0
3.3149511181647e-43
3.8745611297421e-43
1.4157713027487e-14
4.0035860345944e-13
5.1248842876748e-12
4.0640889453244e-11
2.9587070953217e-10
3.1151849784635e-09
3.7158377534487e-08
4.1786906586404e-07
4.4061209207609e-06
4.4275685573477e-05
0.0004355050803803
0.0042987826849796
0.047845521999681
0.45736422724647
0.92552411306808
0.99206045115897
0.99664928208924
0.99748056755766
0.99764460232502
0.99761246121236
0.99763629796907
0.99760777133181
0.99042222211342
0.87885156060823
0.31139261333742
0.02433018263099
0.0021551018800038
0.00046785194395757
0.00010134202158495
2.1126957900495e-05
4.3973196801537e-06
9.1467075450559e-07
1.9066551243256e-07
4.0059393034899e-08
8.7252749588096e-09
2.1815861797034e-09
7.9152734879639e-10
4.0837267521045e-10
1.9556482262724e-10
7.6285963889606e-11
2.6289915648865e-11
8.4485692584348e-12
2.597905295787e-12
7.7504372869961e-13
2.2579015853955e-13
6.444209527128e-14
1.805858101744e-14
4.9781881480801e-15
1.3522360710349e-15
3.6244175727662e-16
9.5971702913844e-17
2.5130780480777e-17
6.5133658478155e-18
1.6721398185583e-18
4.2549899376244e-19
1.0738442126182e-19
2.6892470088212e-20
6.6860980911696e-21
1.6510221148591e-21
4.0507821231538e-22
9.8783198014413e-23
2.39510401379e-23
5.7755033600656e-24
1.385466681983e-24
3.3071238654487e-25
7.8569149657008e-26
1.8582004436635e-26
4.3757958045251e-27
1.026182513654e-27
2.3970050078555e-28
5.5777474282833e-29
1.2931790980741e-29
2.9876432781787e-30
6.8790053190403e-31
1.5787108791428e-31
3.6116837615483e-32
8.2374773693206e-33
1.8732716673379e-33
4.2478725924172e-34
9.6060824986912e-35
2.1665219448924e-35
4.8736880267277e-36
1.0936146393738e-36
2.4480218386067e-37
5.4669047678048e-38
1.2180703839294e-38
2.7079207867724e-39
6.007018765557e-40
1.3297410725121e-40
2.9375421928391e-41
6.4765433689624e-42
1.4246331634358e-42
3.1466624379005e-43
6.3459087566069e-44
2.3033764264706e-44
0
0
0
1.0641827491193e-42
9.6469237213538e-43
1.7085825238363e-15
5.8612475724319e-14
8.8936855716441e-13
7.4664160441266e-12
4.7348831176874e-11
4.2381686286071e-10
6.1974661462446e-09
9.3722366562388e-08
1.3077499303577e-06
1.6501264061291e-05
0.0001969084907197
0.0021770430924641
0.028746153261289
0.34633735208902
0.88344513204959
0.99139041086599
0.99694655233646
0.99760322966805
0.99761246121236
0.99763496594921
0.99763033012741
0.99727795402043
0.98851061396153
0.88656140216114
0.35208734438212
0.034173782968169
0.0034950690866632
0.00083545042616469
0.00020344001451139
4.3009346314009e-05
8.6643238330719e-06
1.7401641176089e-06
3.489397919427e-07
7.2430949510836e-08
1.5936424935537e-08
3.9467028217479e-09
1.3815236559264e-09
6.975912344755e-10
3.4443998545751e-10
1.4446988589629e-10
5.3314873769142e-11
1.8163333622527e-11
5.8606545274353e-12
1.8207388521247e-12
5.4968558218191e-13
1.6206629692623e-13
4.6805850332312e-14
1.3271972773134e-14
3.70195698117e-15
1.0173934052764e-15
2.7586593974526e-16
7.38855684276e-17
1.956608809968e-17
5.1274970641097e-18
1.3307360895614e-18
3.4225772960453e-19
8.7286463233844e-20
2.2085284490569e-20
5.5466197513619e-21
1.3832790853302e-21
3.4270193191167e-22
8.4372852115878e-23
2.0649480391706e-23
5.0253323010418e-24
1.21643340239e-24
2.929470754487e-25
7.0205056187432e-26
1.6746332846457e-26
3.9767674224123e-27
9.4033118403936e-28
2.2143549573897e-28
5.1939770779863e-29
1.2136832078497e-29
2.8256945172292e-30
6.5556822254275e-31
1.515787143656e-31
3.4933157317341e-32
8.0253779304495e-33
1.8380919276495e-33
4.1974603624968e-34
9.5579527452942e-35
2.1704069720328e-35
4.9153294532488e-36
1.1102851706222e-36
2.5016149806319e-37
5.6226673099443e-38
1.260755178291e-38
2.8204256136696e-39
6.2953783159562e-40
1.4020977679471e-40
3.1161516590362e-41
6.9089412559547e-42
1.5375787788735e-42
3.1314878099355e-43
1.1399091259972e-43
0
0
0
4.688776794034e-42
2.8575318465543e-36
1.5972502089744e-17
9.9765834463591e-16
2.2363590196582e-14
2.2599020915013e-13
1.4740453058849e-12
1.1839512271263e-11
1.8145861470237e-10
3.7723820412024e-09
7.3973157882209e-08
1.3450899531757e-06
2.4878088100849e-05
0.0003922579675189
0.0062519153525426
0.091750511515853
0.62205053391912
0.96456644618258
0.99603805162567
0.99738260282681
0.99759730911162
0.99761246121236
0.99745037778749
0.99346428112836
0.96844469340372
0.7919059205603
0.24467286569476
0.026231091445027
0.0042012179257783
0.0010471155229229
0.00025071966817261
5.6540348664993e-05
1.2610537939638e-05
2.7843900533705e-06