/*--------------------------------*- C++ -*----------------------------------*\
  =========                 |
  \\      /  F ield         | OpenFOAM: The Open Source CFD Toolbox
   \\    /   O peration     | Website:  https://openfoam.org
    \\  /    A nd           | Version:  7
     \\/     M anipulation  |
\*---------------------------------------------------------------------------*/
FoamFile
{
    version     2.0;
    format      ascii;
    class       surfaceScalarField;
    location    "0.7";
    object      alphaPhi0.water;
}
// * * * * * * * * * * * * * * * * * * * * * * * * * * * * * * * * * * * * * //

dimensions      [0 3 -1 0 0 0 0];

internalField   nonuniform List<scalar> 
11840
(
0
0
0
0
0
0
0
0
0
0
0
0
0
0
0
0
0
0
0
0
0
0
0
0
0
0
0
0
0
0
0
0
0
0
0
0
0
0
0
0
0
0
0
0
0
0
0
0
0
0
0
0
0
0
0
0
0
0
0
0
0
0
0
0
0
0
0
0
0
0
0
0
0
0
0
0
0
0
0
0
0
0
0
0
0
0
0
0
0
0
0
0
0
0
0
0
0
0
0
0
0
0
0
0
0
0
0
0
0
0
0
0
0
0
0
0
0
0
0
0
0
0
0
0
0
0
0
0
0
0
0
0
0
0
0
0
0
0
0
0
0
0
0
0
0
0
0
0
0
0
0
0
0
0
0
0
0
0
0
0
0
0
0
0
0
0
0
0
0
0
0
0
0
0
0
0
0
0
0
0
0
0
0
0
0
0
0
0
0
0
0
0
0
0
0
0
0
0
0
0
0
0
0
0
0
0
0
0
0
0
0
0
0
0
0
0
0
0
0
0
0
0
0
0
0
0
0
0
0
0
0
0
0
0
0
0
0
0
0
0
0
0
0
0
0
0
0
0
0
0
0
0
0
0
0
0
0
0
0
0
0
0
0
0
0
0
0
0
0
0
0
0
0
0
0
0
0
0
0
0
0
0
0
0
0
0
0
0
0
0
0
0
0
0
0
0
0
0
0
0
0
0
0
0
0
0
0
0
0
0
0
0
0
0
0
0
0
0
0
0
0
0
0
0
0
0
0
0
0
0
0
0
0
0
0
0
0
0
0
0
0
0
0
0
0
0
0
0
0
0
0
0
0
0
0
0
0
0
0
0
0
0
0
0
0
0
0
0
0
0
0
0
0
0
0
0
0
0
0
0
0
0
0
0
0
0
0
0
0
0
0
0
0
0
0
0
0
0
0
0
0
0
0
0
0
0
0
0
0
0
0
0
0
0
0
0
0
0
0
0
0
0
0
0
0
0
0
0
0
0
0
0
0
0
0
0
0
0
0
0
0
0
0
0
0
0
0
0
0
0
0
0
0
0
0
0
0
0
0
0
0
0
0
0
0
0
0
0
0
0
0
0
0
0
0
0
0
0
0
0
0
0
0
0
0
0
0
0
0
0
0
0
0
0
0
0
0
0
0
0
0
0
0
0
0
0
0
0
0
0
0
0
0
0
0
0
0
0
0
0
0
0
0
0
0
0
0
0
0
0
0
0
0
0
0
0
0
0
0
0
0
0
0
0
0
0
0
0
0
0
0
0
0
0
0
0
0
0
0
0
0
0
0
0
0
0
0
0
0
0
0
0
0
0
0
0
0
0
0
0
0
0
0
0
0
0
0
0
0
0
0
0
0
0
0
0
0
0
0
0
0
0
0
0
0
0
0
0
0
0
0
0
0
0
0
0
0
0
0
0
0
0
0
0
0
0
0
0
0
0
0
9.3582519450013e-47
5.5157970282375e-47
3.7049786238129e-46
2.8545548817076e-46
1.3363664800154e-45
1.0682510367079e-45
4.7042894298422e-45
3.8061367551685e-45
1.6298024946731e-44
1.2472253201496e-44
1.5802032477326e-43
9.8002531143097e-44
6.7719742925969e-43
4.9434315302088e-43
2.7986446097854e-42
1.9560862888262e-42
1.5187987876196e-41
8.9458560338057e-42
3.8518477368042e-41
1.8139332058903e-41
4.5430152163854e-41
2.2878240954984e-41
4.6071258235743e-41
2.3036908487886e-41
3.1219799422944e-41
1.858977931217e-41
1.1193726609261e-41
9.4758890336936e-42
2.197540513413e-42
3.0046195589238e-42
3.596998083945e-43
7.0798218706641e-43
6.5549680791963e-44
1.6295949623804e-43
1.1223884699173e-44
4.5909207869594e-44
2.5667699643657e-45
6.5869256691367e-45
5.0565793277476e-46
1.8526264548521e-45
7.5529593326709e-47
3.9291464887323e-46
1.8983759755913e-47
4.8518271540502e-47
3.4426681361516e-48
1.4166677909605e-47
5.1504667474893e-49
2.6865343974215e-48
1.2955857255723e-49
2.9732269401872e-49
2.3615993525792e-50
9.7490063663972e-50
3.543079709925e-51
1.8443641986619e-50
7.0284343218938e-52
2.1417318759323e-51
1.6533912704012e-52
4.3906613178818e-52
2.4373370188237e-53
1.3005126893755e-52
4.7595072933974e-54
1.7527808913928e-53
9.8944410225023e-55
2.9432015620796e-54
2.3552468820241e-55
5.846875600105e-55
3.3543799599641e-56
1.8520669023859e-55
8.3626608162643e-57
2.0097348855969e-56
1.2305623553295e-57
6.6328876488371e-57
3.2045239833004e-58
7.493773836894e-58
5.7995110250087e-59
2.426064009446e-58
8.5013773461452e-60
4.59260442072e-59
2.1339732257521e-60
5.209725324045e-60
3.1140912734661e-61
1.6855874028688e-60
7.9270455945032e-62
1.9066596974104e-61
1.2448780003767e-62
6.1772307720745e-62
2.1587937169559e-63
9.3826952116577e-63
5.4184389136367e-64
1.3227619063103e-63
7.8898944357159e-65
4.2810285697099e-64
2.0643770422756e-65
4.8160253940498e-65
3.7308415495246e-66
1.563892668872e-65
5.4647204617871e-67
2.9543006585363e-66
1.3714769630865e-67
3.3474988487062e-67
1.9965367583773e-68
1.0834950344192e-67
5.2245988596817e-69
1.2185919812433e-68
9.4437033555825e-70
3.9573839507793e-69
1.400452121601e-70
7.4632845931317e-70
2.8855858999819e-71
8.7320787685914e-71
5.1412491260595e-72
2.137295974542e-71
1.3462581985552e-72
3.1430850184558e-72
2.4326358786685e-73
1.0199518394982e-72
3.5531781372876e-74
1.9267791286256e-73
9.3131115570101e-75
2.1678477246665e-74
1.7064926669441e-75
7.0301648099252e-75
3.2548268629048e-76
1.3128914162758e-75
5.9019019023282e-77
2.4744174420349e-76
8.5285155877229e-78
4.681947146395e-77
1.6750090636156e-78
6.1769388473671e-78
3.5461694993301e-79
1.0395688081906e-78
7.2498257485754e-80
2.133411159429e-79
1.4517078170083e-80
4.3468869092187e-80
3.5563571454007e-81
8.56496139362e-81
6.4278764620179e-82
2.687415959669e-81
9.512644785084e-83
5.0856787035113e-82
2.0108710517285e-83
5.9353121989313e-83
4.7878773193952e-84
1.1985469968936e-83
6.9063619100515e-85
3.7824453501388e-84
1.3835757115555e-85
4.8553248605165e-85
2.9348934508869e-86
8.5777714301552e-86
6.051097408326e-87
1.7710910506313e-86
1.2368820096545e-87
3.6341343156202e-87
2.5961243932668e-88
7.4468174997804e-88
4.323717937092e-89
1.9741584116989e-88
9.1411893328117e-90
2.7140402626558e-89
2.1706001181871e-90
5.4570242815048e-90
1.5813645041828e-90
0
0
0
0
0
0
0
0
0
0
0
0
0
0
0
0
0
0
4.7568555373652e-34
0
8.6523212709268e-35
3.8916234102725e-34
1.5740029263679e-35
7.078318344559e-35
1.4189561001382e-34
0
2.5799213495793e-35
1.1609639651803e-34
4.6907661780335e-36
2.1108447317759e-35
8.5286658087163e-37
3.8378995971619e-36
1.5506665109157e-37
6.9779992978007e-37
7.2804412407771e-37
0
1.3237165923154e-37
5.9567246576591e-37
2.4067575251609e-38
1.0830408673359e-37
4.3759257900681e-39
1.96916592371e-38
7.9563306846501e-40
3.5803256785426e-39
4.6599281680511e-39
0
8.4781237268936e-40
3.8137409820253e-39
1.5579003932172e-40
6.9719893617667e-40
3.6479554367997e-41
1.4322043207004e-40
2.376605798643e-41
4.4355694977189e-41
2.1019860227775e-41
2.1070854114442e-41
1.9216949726745e-41
1.7236570590922e-41
1.7624050651521e-41
1.132277712643e-41
1.6996440463642e-41
0
4.1903725710684e-42
1.5049391155338e-41
1.0016870481908e-42
3.1973040927184e-42
6.3910575013256e-43
0
1.4019569376892e-43
5.0471428753377e-43
2.5588241408607e-44
0
2.6033986563771e-44
0
1.0548602540502e-45
2.5107172326778e-44
9.8887950364767e-46
0
1.8557994143184e-46
8.0779199897591e-46
2.3959196188725e-47
1.6245300777558e-46
1.9637153820376e-48
0
1.8263598847236e-48
1.6991524269912e-49
3.7130154031794e-50
1.7966523459756e-48
3.7057602165511e-50
0
1.1770099719734e-50
2.5243165424607e-50
1.8777914503696e-51
1.3360277395207e-50
7.4945860390912e-52
1.1292203168199e-51
2.0056779227592e-52
0
2.6538549858194e-52
0
2.9112053744597e-53
2.3633753443361e-52
8.8000629503068e-54
0
1.6026170892969e-54
7.1998754567039e-54
4.9615334212087e-55
0
4.9619000100261e-55
0
7.104270569731e-56
4.2516414543795e-55
4.611189177966e-56
0
6.4376602842735e-57
3.9674846054183e-56
4.243298390525e-57
0
1.0216520798013e-58
4.1411557303375e-57
1.0213438527183e-58
0
6.4208071977277e-59
0
8.9451595280989e-60
5.52630693592e-59
5.5280486635305e-60
0
1.0051059087835e-60
4.5229484895488e-60
1.3872898962063e-61
8.6637801428596e-61
8.4228976454752e-62
0
1.1378360596307e-62
7.2850655629271e-62
7.0323719905038e-63
0
2.1900060993994e-64
6.8133728328488e-63
2.1892926499202e-64
0
2.5787394892094e-65
0
2.5774806132361e-65
0
1.5189980655102e-65
0
2.5993553179757e-66
1.2590625712604e-65
4.6859637465006e-67
2.1307590149144e-66
6.3612215521113e-68
0
6.3586594762829e-68
0
2.1034352763925e-69
6.14831599836e-68
2.1025880916766e-69
0
7.8317771083628e-71
2.0242703379836e-69
6.9977870246659e-71
0
9.619064366446e-72
0
3.1437350764077e-72
0
2.3878184217829e-72
0
2.8800672699907e-73
0
2.8787386890983e-73
0
5.2500446659592e-75
2.8262382443773e-73
3.3609144854008e-75
0
2.3864962859869e-75
0
8.395704420402e-77
2.3025392432136e-75
7.29407331695e-77
0
8.0806911879612e-78
0
2.5484184755363e-78
0
1.9239186603556e-78
0
1.7972622495475e-79
0
1.7961683177282e-79
0
1.4189332316855e-80
0
8.438041570164e-81
0
0
0
0
0
0
0
0
0
0
0
0
0
0
0
0
4.3984059185709e-19
2.2085042435927e-19
1.2058782345919e-17
6.2426401509682e-18
1.4632235813602e-16
7.9449264889446e-17
9.7112216656136e-16
5.6096074065221e-16
4.4327411261649e-15
2.6128957853756e-15
2.4243279690324e-14
1.3414853337886e-14
2.3736062036177e-13
1.172322707306e-13
1.5651950660651e-12
8.6535083618694e-13
4.7188733652293e-12
3.7011216107149e-12
9.9960962521686e-12
1.0329888115959e-11
1.9773063396914e-11
2.2045457175745e-11
3.1104607822314e-11
3.9239193304686e-11
3.3879274625501e-11
4.9956467735332e-11
3.3113336775501e-11
4.9818810498126e-11
2.7348570483541e-11
4.4658625479296e-11
1.6947756416043e-11
3.2462808178837e-11
6.4466662170135e-12
1.6422570695922e-11
1.2594297509953e-12
4.8277554267163e-12
1.7141218936609e-13
7.9375914669489e-13
3.2364265594005e-14
1.1740536279639e-13
8.6650455769564e-15
2.2201195369508e-14
2.9878274112462e-15
5.9998946077906e-15
1.1046140192005e-15
2.0488824098844e-15
3.9668958940629e-16
7.3471661621706e-16
1.3913985649457e-16
2.6085032385016e-16
4.8452175654935e-17
9.1621780284865e-17
1.6771350338031e-17
3.198701478694e-17
5.6782047116019e-18
1.1031681969142e-17
1.8262991320392e-18
3.6795478715124e-18
5.4431760750663e-19
1.1556461318616e-18
1.5017085783817e-19
3.369760340852e-19
3.9279610372007e-20
9.2030969222345e-20
1.0025115200509e-20
2.4100094228664e-20
2.5350370489087e-21
6.1779970228816e-21
6.3615217265643e-22
1.5649090089164e-21
1.5796925879271e-22
3.9217392665856e-22
3.8765628446492e-23
9.7152746688754e-23
9.4092669299161e-24
2.3793737040379e-23
2.2623174711148e-24
5.7671551569811e-24
5.3944132943044e-25
1.3850838997685e-24
1.276577734211e-25
3.2992487226205e-25
2.9998390321108e-26
7.7997307647491e-26
7.0033915573665e-27
1.8311134089474e-26
1.6250878202605e-27
4.271101911402e-27
3.7495751984534e-28
9.9026148625417e-28
8.6056256825522e-29
2.2830736969593e-28
1.9652545777745e-29
5.236069802077e-29
4.4670181901261e-30
1.1949376354038e-29
1.0108662280579e-30
2.714340595601e-30
2.2779844531068e-31
6.1386914775946e-31
5.1130937062259e-32
1.3825547946816e-31
1.1433505286844e-32
3.1015417518498e-32
2.5475179996972e-33
6.9318208125714e-33
5.6567968054879e-34
1.5437255360976e-33
1.252007533538e-34
3.4262442705271e-34
2.7624148398172e-35
7.5798197962832e-35
6.0767933759857e-36
1.6716819157905e-35
1.3329614905441e-36
3.675869056288e-36
2.9158727283979e-37
8.0599332734091e-37
6.3617161157586e-38
1.7624534600482e-37
1.3844544415895e-38
3.843838633745e-38
3.0055423887233e-39
8.3621394748862e-39
6.5094676469508e-40
1.8147433051823e-39
1.4066395681399e-40
3.9291337501873e-40
3.0329770608875e-41
8.487860529146e-41
6.5258428489853e-42
1.8295883037497e-41
1.4012503796803e-42
3.9354483468812e-42
3.0028616454796e-43
8.4479428637495e-43
6.4227736849158e-44
1.8098900846945e-43
1.3712084563323e-44
3.8701248192206e-44
2.9221496059904e-45
8.2602831561442e-45
6.2164553703359e-46
1.7598937093394e-45
1.3202214108217e-46
3.7430240927108e-46
2.799209529545e-47
7.9474077523255e-47
5.9255523990824e-48
1.6846745531674e-47
1.252409238561e-48
3.565448423611e-48
2.6430536852486e-49
7.5342318304224e-49
5.5696193145776e-50
1.5896762081988e-49
1.1719837339109e-50
3.3491965291677e-50
2.4626926936113e-51
7.0461435260285e-51
5.1678127742129e-52
1.4803252704681e-51
1.0829937279411e-52
3.1057957142002e-52
2.2666363178375e-53
6.5074869436434e-53
4.7379232424398e-54
1.361734485842e-53
9.8913935985433e-55
2.8459269161917e-54
2.0625417320659e-55
5.940461153315e-55
4.2957175734691e-56
1.2384946689247e-55
8.9365451533827e-57
2.5790355637487e-56
1.8569096686076e-57
5.3644605025359e-57
3.8572182723618e-58
1.1143952907334e-57
7.9116182962783e-59
2.3177453494237e-58
1.8710985222705e-59
4.6538830825727e-59
1.3589353979855e-59
0
0
0
0
0
0
0
0
0
0
0
0
4.1346723943565e-19
2.0495696291922e-19
1.6058743071499e-17
7.9406108965462e-18
2.8737868631527e-16
1.4321051668392e-16
3.2036311889922e-15
1.6297435081757e-15
2.2894222240474e-14
1.2331642496533e-14
9.5034730596001e-14
5.7045664351768e-14
2.628768245005e-13
1.6307546701525e-13
1.0418168872458e-12
5.0010436558098e-13
1.0428070837117e-11
3.8656466671897e-12
1.3036396457717e-10
5.3546786783822e-11
4.7499446210928e-10
3.3042307210767e-10
8.9554875600899e-10
9.4074812016739e-10
1.3202953845124e-09
1.6589566918755e-09
1.4131380641922e-09
2.0613043718601e-09
1.3715800323391e-09
2.0488254513098e-09
1.129436371745e-09
1.8385584940275e-09
6.9439073163669e-10
1.3363120433793e-09
2.6088694858051e-10
6.7567713991473e-10
4.8874841526758e-11
1.9849658484443e-10
6.0849379840436e-12
3.237711080842e-11
1.0506905749083e-12
4.8891280122001e-12
2.1030332675352e-13
8.6258351474913e-13
5.6444215674847e-14
1.598599321527e-13
2.0729152198588e-14
3.8428518725218e-14
8.2272858202147e-15
1.3544309272106e-14
3.2519302009322e-15
5.319769530435e-15
1.2631540846281e-15
2.0970007824393e-15
4.8235935661005e-16
8.1571065359387e-16
1.8046568881792e-16
3.1219822045149e-16
6.488186543598e-17
1.1627121570226e-16
2.1730058139885e-17
4.1095013740463e-17
6.6308009927603e-18
1.3417296026769e-17
1.8548585570848e-18
4.0077878717464e-18
4.9085765808665e-19
1.1126924500639e-18
1.2688832239322e-19
2.9556449012746e-19
3.2516959267759e-20
7.6838216913458e-20
8.2646849333499e-21
1.9730941753801e-20
2.0768503264012e-21
5.0089627440002e-21
5.1544746939802e-22
1.2561075479656e-21
1.2648030431971e-22
3.1124346396375e-22
3.0731982030587e-23
7.6290291486438e-23
7.4026671946471e-24
1.8521258153547e-23
1.7690619503037e-24
4.4578166606187e-24
4.1966734068369e-25
1.0644847524631e-24
9.8878036093809e-26
2.5233783850668e-25
2.3149126819987e-26
5.9412950279851e-26
5.3876064193052e-27
1.390085703669e-26
1.2469492718614e-27
3.2333068153632e-27
2.8710490058018e-28
7.4792840198746e-28
6.5781486268524e-29
1.7211810815662e-28
1.500229706149e-29
3.9416461214509e-29
3.406525250558e-30
8.9852842048077e-30
7.7030794880142e-31
2.039373848544e-30
1.7350290001242e-31
4.6096815275483e-31
3.8933360929165e-32
1.0378722410906e-31
8.7053540305022e-33
2.3280818237633e-32
1.9398629700938e-33
5.2036715859293e-33
4.3086494232447e-34
1.1591747493092e-33
9.5401991927331e-35
2.5738321579033e-34
2.1060871193221e-35
5.6972334729774e-35
4.6360745136685e-36
1.2573502949327e-35
1.0177210649302e-36
2.7670003880681e-36
2.2282162002827e-37
6.072556274105e-37
4.8660788306879e-38
1.3291955266702e-37
1.0600701554055e-38
2.902043582106e-38
2.3038899104372e-39
6.3205788963782e-39
4.9956990026989e-40
1.3733631520429e-39
1.0808662906225e-40
2.9773170126952e-40
2.3335693676686e-41
6.440349700962e-41
5.0277378513724e-42
1.3901772299032e-41
1.081076019289e-42
2.9945887857304e-42
2.3200566387125e-43
6.4378207580906e-43
4.9696448570704e-44
1.381344877173e-43
1.0625782487063e-44
2.9583696484458e-44
2.2679239330105e-45
6.3243235896501e-45
4.8322581143213e-46
1.3496157063527e-45
1.0278905776828e-46
2.8751633596738e-46
2.1829251266029e-47
6.114940294635e-47
4.6285520496272e-48
1.29843191182e-47
9.7990535802117e-49
2.7527227453446e-48
2.0714444561156e-49
5.8269368838036e-49
4.3724957123968e-50
1.2316012890668e-49
9.2165521367134e-51
2.5993730624733e-50
1.9400188741841e-51
5.4783746527011e-51
4.0780877319342e-52
1.1530145745105e-51
8.5611967698596e-53
2.4234413284866e-52
1.7949539572556e-53
5.0869675968086e-53
3.7585993976867e-54
1.0664186920526e-53
7.8608019164311e-55
2.2328089418141e-54
1.641963589646e-55
4.6692549966048e-55
3.4283630514228e-56
9.7511876899089e-56
7.0682205073847e-57
2.0386128230491e-56
1.6805176925377e-57
4.1151614497851e-57
1.2084865357366e-57
0
0
0
0
0
0
0
0
0
0
1.7574118796266e-19
8.5718821739546e-20
9.6572124128545e-18
4.6432707335289e-18
2.0999011357233e-16
1.0079619169745e-16
2.6858338381342e-15
1.2910944674687e-15
2.4020921260461e-14
1.1533975067866e-14
1.649931053115e-13
7.9866107663101e-14
8.2361812296323e-13
4.3500874303715e-13
2.4408516640968e-12
1.582871881787e-12
6.4861646864891e-12
3.9529672698674e-12
3.5729419124339e-11
1.5839965861134e-11
3.9784886255295e-10
1.2952700196025e-10
4.9946757812337e-09
1.6528646285986e-09
2.216008210552e-08
1.3190025214136e-08
3.2818072280439e-08
3.8784413554824e-08
3.3412200521937e-08
4.8539722918962e-08
3.1753598543804e-08
4.7507546057465e-08
2.6028476293702e-08
4.2361366090023e-08
1.6094949441276e-08
3.0845224952057e-08
6.2569434565732e-09
1.5922867919262e-08
1.2444936200304e-09
4.8982856344461e-09
1.5762559862895e-10
8.4017992797773e-10
2.7300781999761e-11
1.2691276564834e-10
5.1390424239304e-12
2.3213763222494e-11
9.6137861806193e-13
4.3331544337925e-12
2.1148562898606e-13
7.8788000325113e-13
6.8266685851772e-14
1.5728019216121e-13
2.8926716088588e-14
4.5010457783654e-14
1.2636207215812e-14
1.8372948199012e-14
5.4810160097259e-15
7.9988331185058e-15
2.3510780907419e-15
3.4997256773398e-15
9.7558639533104e-16
1.5064034566709e-15
3.7672569210093e-16
6.1743771090865e-16
1.3063937322326e-16
2.3217664572406e-16
4.0298122599134e-17
7.8234042964258e-17
1.1338441277485e-17
2.3727412607866e-17
3.0343852340931e-18
6.6696687735852e-18
7.9657368510377e-19
1.7977434889865e-18
2.0726061060895e-19
4.7468880552742e-19
5.3386846556169e-20
1.2368915765862e-19
1.3578717846162e-20
3.1821839490415e-20
3.4092006883641e-21
8.0802406114781e-21
8.4599475114149e-22
2.026236527974e-21
2.07800448681e-22
5.0241152673574e-22
5.0578869416925e-23
1.2332888433998e-22
1.2208792668474e-23
3.0000477080324e-23
2.9243333611449e-24
7.2373580697466e-24
6.9545970642456e-25
1.7325960563746e-24
1.6429563410912e-25
4.1183526049801e-25
3.8573048216172e-26
9.7246822125559e-26
9.0036590395545e-27
2.2821575871226e-26
2.090191087922e-27
5.3248290499864e-27
4.8275190968168e-28
1.2356885976363e-27
1.109580897148e-28
2.8529484054968e-28
2.5386642057717e-29
6.5551901755007e-29
5.7831852319073e-30
1.4993281659757e-29
1.3120181353204e-30
3.4145354504002e-30
2.9649061189056e-31
7.7443461224367e-31
6.6751486232845e-32
1.74961696033e-31
1.4974906652133e-32
3.9380958983441e-32
3.3480293292881e-33
8.8325989330804e-33
7.4610526358372e-34
1.9743219695978e-33
1.6575092562644e-34
4.3988391300806e-34
3.6712339915098e-35
9.7702967577763e-35
8.1081164756957e-36
2.1636246662519e-35
1.7857798993763e-36
4.7776228543157e-36
3.9226639974015e-37
1.0520721879042e-36
8.5945260065251e-38
2.3106166722142e-37
1.8784094499231e-38
5.0617552927304e-38
4.09565770446e-39
1.1061268634572e-38
8.9095853626418e-40
2.4114409990511e-39
1.9338607793177e-40
5.2450722385834e-40
4.1884987305398e-41
1.1383156435661e-40
9.052883930652e-42
2.4651411078796e-41
1.952716727172e-42
5.3274390488241e-42
4.2038011995474e-43
1.1490026908229e-42
9.0327766779254e-44
2.473296798826e-43
1.937317728378e-44
5.3138525845249e-44
4.1476684705544e-45
1.13958058731e-44
8.8644716487642e-46
2.4395284639492e-45
1.8913344210845e-46
5.2133152997094e-46
4.0287517457752e-47
1.1122189257666e-46
8.5679822512715e-48
2.3689436987237e-47
1.819327158517e-48
5.037632220565e-48
3.8573120335051e-49
1.0696056601249e-48
8.1661481779245e-50
2.267586757672e-49
1.7263320950683e-50
4.8002499064514e-50
3.6443616591211e-51
1.0147043793258e-50
7.682869288583e-52
2.1419353136684e-51
1.6175003831813e-52
4.5152216625114e-52
3.4009445087153e-53
9.5054261974704e-53
7.1413157445399e-54
1.9984902850296e-53
1.4988130525386e-54
4.1957992951629e-54
3.1060240153999e-55
8.8175822296804e-55
7.4242942541933e-56
1.7893575201527e-55
5.2852119914677e-56
0
0
0
0
0
0
0
0
0
0
2.6372293380166e-18
1.2067772047423e-18
9.4277071220799e-17
4.3139631265871e-17
1.5598494669383e-15
7.1765512935643e-16
1.5916779501564e-14
7.3764949586348e-15
1.141781742246e-13
5.2925187499295e-14
6.5710514905842e-13
2.9850774567789e-13
3.4971112979201e-12
1.6085708258898e-12
1.6356056037059e-11
8.9916001433931e-12
5.836861834681e-11
3.7174007866034e-11
2.0628888961561e-10
1.1328782597796e-10
1.1105236476758e-09
4.8069919563555e-10
1.0503148683084e-08
3.3923830452559e-09
1.0525804241888e-07
3.2524993390317e-08
5.3531539353516e-07
2.9372708067006e-07
6.1469659914066e-07
7.9903351313782e-07
5.7057280948385e-07
8.5204809703501e-07
4.6143518746382e-07
7.5276478909672e-07
2.9854478665603e-07
5.6067335446088e-07
1.2562444314889e-07
3.0527012857239e-07
2.8070247661321e-08
1.0264048075129e-07
3.5679902654883e-09
1.9202725873984e-08
6.0294243393022e-10
2.8282930302085e-09
1.1458418636271e-10
5.1475382588166e-10
2.158410705415e-11
9.7193611137108e-11
4.0498466924077e-12
1.8295741998182e-11
7.7186007187232e-13
3.4302040963787e-12
1.8756934934629e-13
6.3090773468548e-13
7.1022620797174e-14
1.3649288946979e-13
3.3769297030234e-14
4.6381173473884e-14
1.6631379426909e-14
2.1580400288565e-14
8.0368263300257e-15
1.06069234355e-14
3.6441827890836e-15
5.0836276557703e-15
1.4868745980739e-15
2.2572833144162e-15
5.3117301269983e-16
8.9396462209804e-16
1.6651142562005e-16
3.1069210445153e-16
4.7414419738231e-17
9.6053301322798e-17
1.2845881885761e-17
2.7397729493928e-17
3.4161541035687e-18
7.4859793719564e-18
9.0012810667833e-19
2.0031221062404e-18
2.3459762556273e-19
5.2861772687821e-19
6.0325933523529e-20
1.3762540310644e-19
1.5304327806424e-20
3.5338964035367e-20
3.8359338476245e-21
8.9565770350221e-21
9.5133530591057e-22
2.2435940172547e-21
2.3371392641926e-22
5.5617279549173e-22
5.692061027406e-23
1.3657501409685e-22
1.3752174809029e-23
3.3248477796383e-23
3.2979426650675e-24
8.0297425669305e-24
7.8543936308211e-25
1.9249362342775e-24
1.8585876113036e-25
4.582923116312e-25
4.3715410163145e-26
1.084129953011e-25
1.0224177391402e-26
2.5492451878485e-26
2.3785346479133e-27
5.9606487231372e-27
5.505654952093e-28
1.3863447805879e-27
1.2683699533558e-28
3.2083011268435e-28
2.9089002676149e-29
7.3896436492767e-29
6.642886750997e-30
1.694432339839e-29
1.5108487910219e-30
3.8687973341496e-30
3.4229852544081e-31
8.7977021160808e-31
7.7265602608103e-32
1.9929084463134e-31
1.7379448303909e-32
4.4978724385368e-32
3.8960156067538e-33
1.0115788419831e-32
8.7056643297344e-34
2.2674155623982e-33
1.9392646012328e-34
5.0659700352832e-34
4.3070480329208e-35
1.1283695242207e-34
9.5384970380627e-36
2.5058244761639e-35
2.1066127289049e-36
5.5489446320251e-36
4.6402141252932e-37
1.225398412852e-36
1.0194860784679e-37
2.6989526981724e-37
2.2343618549058e-38
5.9293283471616e-38
4.885301685867e-39
1.2994118239363e-38
1.0656868919905e-39
2.8408991252836e-39
2.3195353950933e-40
6.1967939117688e-40
5.0377494338151e-41
1.3486933098869e-40
1.0918568678604e-41
2.9290392295821e-41
2.3616544222444e-42
6.3479327413393e-42
5.0981778066916e-43
1.3729742626792e-42
1.0984664499212e-43
2.9637518714949e-43
2.3624127959791e-44
6.385512628297e-44
5.0715976611528e-45
1.3732451799103e-44
1.0868649979183e-45
2.9479598466934e-45
2.3252465513341e-46
6.3173935215972e-46
4.9664363559555e-47
1.3515058088256e-46
1.0590639596219e-47
2.8865649108673e-47
2.2548576125264e-48
6.155269915145e-48
4.7935037781705e-49
1.3104889369023e-48
1.017514754349e-49
2.7858482231896e-49
2.1567412336806e-50
5.9133830038e-50
4.5649949136576e-51
1.2533864501363e-50
9.6490318227938e-52
2.6528911901336e-51
2.0366631808287e-52
5.6073595848929e-52
4.2964533390582e-53
1.1834467581887e-52
8.9490562392111e-54
2.499869056784e-53
2.1504364973509e-54
5.099580190478e-54
1.5149340640214e-54
0
0
0
0
0
0
0
0
1.4791149506599e-33
3.9638737287242e-34
1.8063495927195e-17
7.690224396242e-18
5.3446315093395e-16
2.3015957067516e-16
7.5384548167138e-15
3.2876511867409e-15
6.6567530999616e-14
2.9398379599592e-14
4.1973763167073e-13
1.8572986212264e-13
2.2846830625454e-12
9.7340047462223e-13
1.3558766866025e-11
5.6838999496387e-12
8.0044056050841e-11
3.7378563445087e-11
3.7939904794951e-10
2.09346997664e-10
1.4392733612703e-09
8.5442334055653e-10
5.4222231603165e-09
2.8648699411205e-09
2.7071312268472e-08
1.165785517464e-08
2.0249715810955e-07
6.9683544134833e-08
1.614529449477e-06
5.1757269380601e-07
7.7045367397541e-06
4.4243336132482e-06
8.842979266747e-06
1.1426508983296e-05
7.5286325030817e-06
1.1928939135395e-05
5.1620219479771e-06
9.4251666575962e-06
2.4743756191511e-06
5.6189975057685e-06
6.2732017808127e-07
2.0993997438682e-06
7.9406819753279e-08
4.1760200622506e-07
1.2639485953492e-08
6.0049541485179e-08
2.3920151112291e-09
1.0808722362822e-08
4.5440624273991e-10
2.0441263148264e-09
8.577848376743e-11
3.860805123275e-10
1.6196566940538e-11
7.2854955644527e-11
3.0665572189041e-12
1.3734189689433e-11
6.1589691484691e-13
2.5818795156868e-12
1.7184392173003e-13
4.9914361925978e-13
7.7205610071524e-14
1.2445375384484e-13
4.1613341788499e-14
5.1483846032073e-14
2.2230785222565e-14
2.6944183247192e-14
1.0909371962012e-14
1.4061790087169e-14
4.6799563985544e-15
6.6852479624638e-15
1.7075465476737e-15
2.7566060690308e-15
5.3608645554504e-16
9.7286658273413e-16
1.5248443821096e-16
3.0176627142108e-16
4.1588833992032e-17
8.6470079549459e-17
1.1195546648658e-17
2.3860237194901e-17
2.9859540015285e-18
6.4618736205865e-18
7.8611183316205e-19
1.7245700715982e-18
2.0393454976518e-19
4.5346993511446e-19
5.2176960760407e-20
1.1751230743016e-19
1.3187895831372e-20
3.0047770937987e-20
3.2976289949436e-21
7.5920580495573e-21
8.1659780876062e-22
1.897852142838e-21
2.0042026895087e-22
4.6983797194775e-22
4.8786252886257e-23
1.1528338494212e-22
1.1785235958907e-23
2.8055522547059e-23
2.8268191379741e-24
6.7758924324198e-24
6.7357240026778e-25
1.6249645341019e-24
1.5950772437953e-25
3.871299548235e-25
3.755394328112e-26
9.1661894931583e-26
8.7933519589748e-27
2.1577667383464e-26
2.0483912550276e-27
5.05186554843e-27
4.7484624182773e-28
1.1766967312388e-27
1.0956857116968e-28
2.7274972272245e-28
2.517176371893e-29
6.2930598841709e-29
5.7587643307087e-30
1.4456344771295e-29
1.3122569613197e-30
3.3070988393127e-30
2.9789393398864e-31
7.5355238624121e-31
6.7379994958709e-32
1.7105519798456e-31
1.5187799369074e-32
3.8689107460251e-32
3.4120589287762e-33
8.7204423866377e-33
7.6410825674517e-34
1.9590643041682e-33
1.7059446735149e-34
4.3871039476108e-34
3.7975027082889e-35
9.794471493292e-35
8.4295136476118e-36
2.1802644954453e-35
1.8660506688138e-36
4.8396111544519e-36
4.1200580341667e-37
1.0713464460122e-36
9.0736544024561e-38
2.3654291412292e-37
1.9934156174567e-38
5.2094321787525e-38
4.3690379476329e-39
1.1444817786891e-38
9.553880065243e-40
2.5084239587145e-39
2.084546714356e-40
5.4852968853861e-40
4.5384918721877e-41
1.1968459718471e-40
9.8607110484654e-42
2.6058261543821e-41
2.1381041894417e-42
5.6617443144417e-42
4.6269982973209e-43
1.2276649533031e-42
9.9941138715078e-44
2.6568074223193e-43
2.1547019089589e-44
5.7387259355005e-44
4.6371423817159e-45
1.2372843011793e-44
9.9622023886154e-46
2.6628362682939e-45
2.1365959143769e-46
5.7208648207899e-46
4.57478873547e-47
1.2269914507221e-46
9.7795749624186e-48
2.6272626394476e-47
2.0873106238926e-48
5.6165054045103e-48
4.4482531401228e-49
1.1988019896917e-48
9.4654997793301e-50
2.5548442640288e-49
2.0112520234792e-50
5.4366734296339e-50
4.2672753727859e-51
1.155244417012e-50
9.0480652002175e-52
2.4509568633338e-51
1.8942028311499e-52
5.2039379760318e-52
4.5758473156114e-53
1.0671269361473e-52
3.1883248606996e-53
0
0
0
0
0
0
0
0
3.6025179443823e-34
3.6135578434219e-35
7.6062762832717e-17
3.0103756384972e-17
2.0438067964911e-15
8.2454324803977e-16
2.6120555914216e-14
1.0708949299366e-14
2.1064591469049e-13
8.7229278898186e-14
1.3000892449004e-12
5.2460363473936e-13
8.237626098457e-12
3.0994108598023e-12
5.6955707198481e-11
2.1913087432266e-11
3.6270199711285e-10
1.5261830791597e-10
1.8910342227014e-09
9.09309558486e-10
8.0143678481576e-09
4.3667447713467e-09
3.0375246082865e-08
1.7102690361829e-08
1.1965560198409e-07
6.1917016031697e-08
5.698423670463e-07
2.5261287229533e-07
3.3977210764671e-06
1.2857794117809e-06
2.2378709274995e-05
8.4236544548008e-06
8.514515027477e-05
5.1879940953905e-05
0.00012784520759353
0.0001753346813271
0.00011546357016201
0.0002059106459734
6.0290827979573e-05
0.00014328724567762
1.4581282587568e-05
5.23480460069e-05
1.6341719302533e-06
8.9847705183537e-06
2.6822647388139e-07
1.2719853122883e-06
5.1280704694947e-08
2.302641899759e-07
9.6757060702739e-09
4.3495474192732e-08
1.8246022951599e-09
8.2075429948595e-09
3.4412296816657e-10
1.547808008852e-09
6.4907877560969e-11
2.9192598336139e-10
1.2242284517015e-11
5.5056257786938e-11
2.3376537076567e-12
1.0377075007833e-11
5.1708131397672e-13
1.9436836764645e-12
1.8102190817124e-13
4.0825648586184e-13
9.8510104950808e-14
1.2810415266032e-13
5.7001666512539e-14
6.6438917414281e-14
2.9351214821814e-14
3.6302788224722e-14
1.2533913067464e-14
1.7486051956039e-14
4.4272431309873e-15
7.082713469301e-15
1.3603659086951e-15
2.4428714133052e-15
3.8838445505081e-16
7.5219842726794e-16
1.0760258681808e-16
2.1728732612495e-16
2.938276971794e-17
6.0749799196109e-17
7.9169991162218e-18
1.6649135838875e-17
2.1013579955098e-18
4.4871480228929e-18
5.4935361653599e-19
1.1901414314511e-18
1.416374821177e-19
3.1096269408087e-19
3.6072564298394e-20
8.0153996197869e-20
9.0871413957919e-21
2.0411601829699e-20
2.2665694146671e-21
5.1415305876508e-21
5.6021668731868e-22
1.2823291667172e-21
1.3730706093415e-22
3.1692432662831e-22
3.3392469013937e-23
7.7672686302455e-23
8.062342105596e-24
1.8888923307138e-23
1.9334902855267e-24
4.5604703584803e-24
4.60764129492e-25
1.0936689070933e-24
1.0915392405831e-25
2.606292057193e-25
2.5714340977847e-26
6.1743166964646e-26
6.0259239025938e-27
1.4545685690292e-26
1.4051035829524e-27
3.4087518930324e-27
3.260939499295e-28
7.9487044602859e-28
7.5340833655373e-29
1.8448028998852e-28
1.7332708081117e-29
4.2624522486284e-29
3.9713504753921e-30
9.8066296308611e-30
9.0641384112873e-31
2.24707688542e-30
2.0611332146621e-31
5.1290213400872e-31
4.6703142764264e-32
1.1663905487641e-31
1.0546566177093e-32
2.6431115879713e-32
2.3738922921488e-33
5.9691608639004e-33
5.3266225815787e-34
1.3436842223125e-33
1.1916157702868e-34
3.0152491572193e-34
2.6580495554489e-35
6.7459565162844e-35
5.9126002965789e-36
1.5048985421204e-35
1.311674051208e-36
3.3478058184203e-36
2.9023254076463e-37
7.4275555142829e-37
6.4058613687653e-38
1.6436331532879e-37
1.4104463239206e-38
3.6280697710101e-38
3.0982577681342e-39
7.9890362831448e-39
6.7903634136065e-40
1.7550742050087e-39
1.4849567651032e-40
3.8469042352971e-40