/*--------------------------------*- C++ -*----------------------------------*\
  =========                 |
  \\      /  F ield         | OpenFOAM: The Open Source CFD Toolbox
   \\    /   O peration     | Website:  https://openfoam.org
    \\  /    A nd           | Version:  7
     \\/     M anipulation  |
\*---------------------------------------------------------------------------*/
FoamFile
{
    version     2.0;
    format      ascii;
    class       volScalarField;
    location    "0.065";
    object      T;
}
// * * * * * * * * * * * * * * * * * * * * * * * * * * * * * * * * * * * * * //

dimensions      [0 0 0 1 0 0 0];

internalField   nonuniform List<scalar> 
12225
(
1.00689
1.0041
1.00171
1.00089
1.00043
1.00012
0.999964
0.999897
0.999864
0.999841
0.999823
0.999788
0.999709
0.999507
0.998994
0.997758
0.994482
0.986875
0.995136
0.994812
0.996745
0.998334
0.999127
0.999464
0.999644
0.999763
0.999837
0.999877
0.999892
0.999881
0.999815
0.999628
0.999137
0.997957
0.994995
0.988125
0.999619
1.00005
1.00023
1.00028
1.0002
1.00008
0.999991
0.999952
0.999932
0.999915
0.999894
0.999861
0.999783
0.999597
0.999134
0.998046
0.995462
0.989937
1.00032
1.00017
0.999777
0.999749
0.999819
0.999835
0.999837
0.99985
0.999863
0.999869
0.999865
0.999844
0.99978
0.999614
0.999201
0.998245
0.996097
0.991789
1.00014
0.999947
0.999658
0.999701
0.999818
0.999857
0.999862
0.999871
0.999881
0.999884
0.99988
0.999859
0.999799
0.999648
0.999285
0.998469
0.996735
0.993461
1.00002
0.999951
0.999769
0.999773
0.999847
0.999872
0.999872
0.999877
0.999884
0.999887
0.999882
0.999863
0.999809
0.999677
0.999368
0.998695
0.997335
0.994893
0.999995
1
0.999864
0.999822
0.999858
0.999877
0.999879
0.999882
0.999888
0.999891
0.999887
0.99987
0.999823
0.999711
0.999454
0.998917
0.997874
0.996079
0.999995
1.00002
0.999917
0.999858
0.999872
0.999888
0.999889
0.999891
0.999895
0.999897
0.999894
0.999879
0.999839
0.999746
0.999539
0.99912
0.99834
0.997039
0.999995
1.00002
0.999951
0.999894
0.999893
0.999902
0.999902
0.999903
0.999905
0.999905
0.999902
0.999889
0.999855
0.99978
0.999619
0.999302
0.998729
0.9978
0.999995
1.00002
0.999976
0.999926
0.999916
0.999918
0.999916
0.999915
0.999916
0.999915
0.999911
0.9999
0.999873
0.999814
0.999691
0.999457
0.999046
0.998392
0.999996
1.00002
0.999992
0.999953
0.999938
0.999935
0.999931
0.999927
0.999927
0.999926
0.999921
0.999912
0.999891
0.999845
0.999754
0.999585
0.999296
0.998845
0.999997
1.00001
1
0.999971
0.999954
0.999949
0.999944
0.99994
0.999938
0.999935
0.999931
0.999923
0.999906
0.999871
0.999803
0.99968
0.999474
0.999156
0.999997
1.00001
1.00001
0.999984
0.999968
0.999962
0.999957
0.999952
0.999948
0.999945
0.999942
0.999935
0.999921
0.999895
0.999845
0.999757
0.999613
0.999393
0.999997
1.00001
1.00001
0.999993
0.999981
0.999974
0.999968
0.999964
0.99996
0.999956
0.999953
0.999948
0.999937
0.999918
0.999885
0.999826
0.999732
0.999591
0.999998
1.00001
1.00001
1
0.999991
0.999985
0.999981
0.999977
0.999972
0.999968
0.999964
0.99996
0.999954
0.999941
0.999919
0.999882
0.999826
0.999743
0.999998
1.00001
1.00001
1
0.999998
0.999994
0.999991
0.999988
0.999983
0.999979
0.999976
0.999973
0.999969
0.999961
0.999946
0.999926
0.999895
0.999851
0.999998
1.00001
1.00001
1.00001
1
0.999999
0.999998
0.999996
0.999992
0.999989
0.999985
0.999982
0.999979
0.999976
0.999968
0.999957
0.999941
0.99992
0.999999
1.00001
1.00001
1.00001
1
1
1
0.999998
0.999995
0.999993
0.999993
0.999991
0.999988
0.999983
0.99998
0.999976
0.999969
0.99996
1
1.00001
1.00001
1.00001
1
1
1
0.999999
0.999998
0.999996
0.999994
0.999992
0.99999
0.999988
0.999986
0.999984
0.99998
0.999976
0.999999
1.00001
1.00001
1.00001
1.00001
1
0.999998
0.999996
0.999993
0.999991
0.999989
0.999987
0.999985
0.999982
0.999981
0.999979
0.999976
0.999974
0.999997
1.00001
1.00001
1.00001
1
0.999998
0.999993
0.999988
0.999985
0.999982
0.999979
0.999976
0.999973
0.999972
0.999971
0.999969
0.999967
0.999966
0.999997
1.00001
1.00002
1.00001
0.999995
0.999988
0.999982
0.999975
0.999969
0.999965
0.999964
0.999963
0.99996
0.999959
0.999958
0.999958
0.999957
0.999955
0.999996
1.00003
1.00003
0.999996
0.999972
0.999966
0.999961
0.999956
0.999952
0.999949
0.999948
0.999947
0.999946
0.999945
0.999945
0.999944
0.999944
0.999944
0.999989
1.00005
1.00004
0.999983
0.999948
0.999938
0.999932
0.999929
0.999929
0.999931
0.999932
0.999933
0.999932
0.999933
0.999934
0.999934
0.999935
0.999935
0.99999
1.00004
0.999992
0.999937
0.999931
0.999929
0.999917
0.999909
0.999908
0.99991
0.999912
0.999915
0.999917
0.999918
0.999919
0.999921
0.999924
0.999925
1.00013
1.00009
0.999825
0.999756
0.999837
0.999896
0.999909
0.999912
0.999916
0.999918
0.99992
0.999921
0.999922
0.999922
0.999923
0.999924
0.999925
0.999926
1.0005
1.00053
0.999952
0.999665
0.999667
0.999718
0.999754
0.999789
0.99982
0.999844
0.999861
0.999875
0.999885
0.999893
0.9999
0.999905
0.999909
0.999915
1.00004
1.0008
1.00096
1.0008
1.00056
1.00034
1.00018
1.00009
1.00003
0.999996
0.99997
0.999954
0.999943
0.999935
0.99993
0.999925
0.999921
0.999921
0.994604
0.993791
0.995838
0.997661
0.998662
0.999144
0.999416
0.999594
0.99971
0.999782
0.999829
0.999863
0.999887
0.999905
0.999918
0.999928
0.999933
0.99993
1.00635
1.00419
1.00178
1.00096
1.00054
1.00023
1.00005
0.999977
0.999939
0.999915
0.9999
0.999892
0.999888
0.999886
0.999885
0.999886
0.999888
0.999899
0.61976
0.619744
0.619674
0.619571
0.619449
0.619305
0.619137
0.618946
0.618736
0.618509
0.618265
0.618006
0.617731
0.617443
0.617143
0.616834
0.616516
0.616194
0.615868
0.615541
0.615217
0.614898
0.614586
0.614285
0.613998
0.613726
0.613471
0.613234
0.613016
0.612819
0.612655
0.612549
0.612563
0.612806
0.613073
0.613211
0.613378
0.613535
0.6137
0.61388
0.614054
0.614292
0.614628
0.614962
0.615347
0.61582
0.616325
0.616873
0.61746
0.618086
0.618748
0.619445
0.620175
0.620936
0.621727
0.622547
0.623393
0.624265
0.62516
0.626077
0.627015
0.627972
0.628946
0.629936
0.630941
0.631958
0.632986
0.634024
0.63507
0.636124
0.637183
0.638247
0.639314
0.640383
0.641453
0.642523
0.643592
0.644659
0.645722
0.646782
0.647837
0.648886
0.649929
0.650966
0.651995
0.653015
0.654027
0.65503
0.656024
0.657008
0.657981
0.658944
0.659895
0.660834
0.661761
0.662675
0.663574
0.664457
0.665329
0.66619
0.667036
0.667869
0.668687
0.669491
0.670279
0.671052
0.671809
0.67255
0.673276
0.673984
0.674677
0.675352
0.67601
0.676651
0.677275
0.67788
0.678468
0.679036
0.679586
0.680117
0.680628
0.68112
0.68159
0.682039
0.682467
0.682873
0.683257
0.68362
0.68396
0.684277
0.684571
0.684843
0.68509
0.685314
0.685514
0.685689
0.685839
0.685964
0.686063
0.686137
0.686184
0.686205
0.686198
0.686162
0.686097
0.686003
0.685879
0.685724
0.685539
0.685322
0.685073
0.684791
0.684477
0.68413
0.683749
0.683333
0.682884
0.682399
0.681879
0.681324
0.680731
0.6801
0.679423
0.67869
0.677902
0.677074
0.676209
0.675308
0.67437
0.673396
0.672384
0.671335
0.670248
0.669122
0.667962
0.666762
0.66555
0.664236
0.663159
0.661061
0.620758
0.620731
0.620681
0.620599
0.620494
0.620366
0.620214
0.620037
0.619835
0.619609
0.619361
0.619094
0.618812
0.618516
0.61821
0.617895
0.617574
0.617249
0.616923
0.616599
0.616279
0.615969
0.61567
0.615388
0.615127
0.614892
0.61469
0.614525
0.614403
0.614326
0.614288
0.614276
0.614275
0.614134
0.613927
0.613878
0.613921
0.614047
0.614241
0.614483
0.614787
0.615121
0.615446
0.615836
0.616294
0.616765
0.617269
0.61781
0.618389
0.619006
0.619659
0.620348
0.621069
0.621822
0.622606
0.623417
0.624256
0.62512
0.626008
0.626918
0.627848
0.628797
0.629764
0.630747
0.631744
0.632754
0.633775
0.634806
0.635846
0.636892
0.637945
0.639002
0.640063
0.641125
0.642189
0.643253
0.644316
0.645376
0.646434
0.647488
0.648537
0.649581
0.650619
0.65165
0.652674
0.653689
0.654696
0.655693
0.656681
0.657659
0.658627
0.659584
0.660529
0.661462
0.662384
0.663294
0.664192
0.665079
0.665953
0.66681
0.667652
0.66848
0.669293
0.670091
0.670874
0.671641
0.672393
0.673129
0.673848
0.674551
0.675237
0.675906
0.676558
0.677193
0.67781
0.678408
0.678989
0.679551
0.680093
0.680617
0.681121
0.681604
0.682067
0.682508
0.682928
0.683326
0.683702
0.684056
0.684387
0.684695
0.68498
0.685242
0.685481
0.685695
0.685884
0.686049
0.686189
0.686303
0.686392
0.686455
0.686491
0.686499
0.68648
0.686432
0.686355
0.686248
0.686111
0.685943
0.685744
0.685513
0.685249
0.684953
0.684624
0.684262
0.683865
0.683434
0.682968
0.682467
0.68193
0.681356
0.680746
0.680097
0.679411
0.67869
0.677933
0.677136
0.676301
0.675427
0.674515
0.673565
0.672577
0.671549
0.670483
0.669379
0.668239
0.667063
0.66587
0.664598
0.663482
0.661743
0.62284
0.622772
0.622702
0.622613
0.622499
0.622358
0.62219
0.621996
0.621778
0.621537
0.621275
0.620996
0.620701
0.620392
0.620072
0.619744
0.619411
0.619073
0.618736
0.618401
0.618072
0.617751
0.617443
0.61715
0.616876
0.616624
0.616395
0.616191
0.616011
0.615855
0.615723
0.61562
0.615551
0.615503
0.615478
0.615498
0.615559
0.615667
0.615828
0.61604
0.616309
0.616633
0.617
0.617407
0.617846
0.618314
0.618817
0.619356
0.619931
0.620542
0.621188
0.621867
0.62258
0.623323
0.624097
0.624899
0.625727
0.626582
0.62746
0.62836
0.629281
0.630221
0.631179
0.632153
0.633142
0.634143
0.635157
0.636181
0.637213
0.638254
0.6393
0.640352
0.641407
0.642465
0.643524
0.644584
0.645643
0.646701
0.647756
0.648808
0.649855
0.650898
0.651934
0.652965
0.653988
0.655003
0.656011
0.657009
0.657999
0.658978
0.659948
0.660907
0.661855
0.662791
0.663715
0.664628
0.665527
0.666414
0.667287
0.668147
0.668994
0.669825
0.670643
0.671445
0.672232
0.673004
0.67376
0.6745
0.675225
0.675932
0.676623
0.677297
0.677954
0.678593
0.679215
0.679818
0.680403
0.68097
0.681517
0.682045
0.682553
0.68304
0.683507
0.683952
0.684375
0.684777
0.685156
0.685513
0.685847
0.686159
0.686447
0.686711
0.686951
0.687167
0.687358
0.687524
0.687665
0.68778
0.687869
0.687931
0.687967
0.687975
0.687955
0.687905
0.687826
0.687717
0.687577
0.687406
0.687204
0.686969
0.686702
0.686402
0.686068
0.6857
0.685298
0.684861
0.684389
0.683882
0.683338
0.682758
0.682142
0.681488
0.680798
0.680077
0.679322
0.678529
0.677698
0.676828
0.67592
0.674973
0.673987
0.672961
0.671897
0.670794
0.669653
0.668475
0.667275
0.666005
0.66485
0.66331
0.625957
0.625848
0.625752
0.625645
0.625514
0.625352
0.625163
0.624948
0.624709
0.624448
0.624168
0.623869
0.623555
0.623228
0.62289
0.622545
0.622193
0.62184
0.621486
0.621136
0.620791
0.620456
0.620132
0.619823
0.619532
0.619261
0.619012
0.618786
0.618586
0.618414
0.618272
0.618164
0.618092
0.618048
0.618037
0.618066
0.618135
0.618246
0.618398
0.618594
0.618834
0.619119
0.619447
0.619817
0.620229
0.620677
0.621164
0.621687
0.622247
0.622843
0.623473
0.624136
0.624832
0.62556
0.626316
0.627102
0.627914
0.628752
0.629614
0.630499
0.631404
0.63233
0.633273
0.634233
0.635208
0.636197
0.637199
0.638211
0.639233
0.640262
0.641299
0.642342
0.643389
0.644439
0.645492
0.646545
0.647599
0.648652
0.649703
0.650752
0.651797
0.652837
0.653873
0.654903
0.655926
0.656943
0.657951
0.658952
0.659944
0.660927
0.6619
0.662863
0.663816
0.664758
0.665688
0.666607
0.667513
0.668407
0.669288
0.670156
0.67101
0.67185
0.672675
0.673487
0.674283
0.675064
0.67583
0.67658
0.677313
0.678031
0.678732
0.679416
0.680083
0.680733
0.681365
0.681979
0.682574
0.683151
0.683708
0.684246
0.684764
0.685262
0.685738
0.686193
0.686625
0.687036
0.687425
0.68779
0.688133
0.688453
0.688749
0.689021
0.689268
0.689491
0.689689
0.689862
0.690009
0.690129
0.690224
0.690291
0.690331
0.690343
0.690326
0.690279
0.690202
0.690095
0.689957
0.689787
0.689585
0.689351
0.689083
0.688782
0.688448
0.688078
0.687675
0.687236
0.686761
0.686251
0.685704
0.685121
0.684502
0.683845
0.683153
0.682426
0.681664
0.680865
0.680028
0.679152
0.678238
0.677285
0.676293
0.675262
0.674191
0.67308
0.671931
0.670742
0.669525
0.668243
0.667052
0.665591
0.630082
0.629934
0.629812
0.62969
0.62954
0.629358
0.629147
0.628908
0.628645
0.62836
0.628055
0.627731
0.627392
0.627041
0.626679
0.626309
0.625934
0.625557
0.625181
0.624808
0.624442
0.624084
0.623739
0.623408
0.623095
0.622802
0.622532
0.622286
0.622068
0.621879
0.621723
0.621599
0.62151
0.621454
0.621432
0.621449
0.621506
0.621604
0.621743
0.621923
0.622144
0.622408
0.622712
0.623058
0.623445
0.62387
0.624334
0.624835
0.625373
0.625947
0.626555
0.627197
0.62787
0.628576
0.629311
0.630074
0.630865
0.631681
0.632523
0.633387
0.634272
0.635178
0.636102
0.637044
0.638002
0.638974
0.639959
0.640956
0.641963
0.642979
0.644003
0.645033
0.646069
0.647109
0.648152
0.649198
0.650244
0.65129
0.652336
0.653379
0.65442
0.655458
0.656491
0.65752
0.658543
0.659559
0.660569
0.661571
0.662566
0.663552
0.664529
0.665497
0.666455
0.667402
0.668339
0.669264
0.670178
0.67108
0.671969
0.672845
0.673708
0.674558
0.675394
0.676216
0.677023
0.677815
0.678592
0.679353
0.680099
0.680829
0.681542
0.682238
0.682918
0.68358
0.684224
0.68485
0.685458
0.686047
0.686617
0.687167
0.687698
0.688207
0.688695
0.689162
0.689606
0.690028
0.690428
0.690804
0.691158
0.691487
0.691793
0.692075
0.692331
0.692563
0.692769
0.692949
0.693103
0.693231
0.693331
0.693404
0.69345
0.693466
0.693453
0.69341
0.693336
0.693232
0.693095
0.692927
0.692726
0.692492
0.692224
0.691922
0.691586
0.691216
0.69081
0.690368
0.689891
0.689377
0.688827
0.68824
0.687616
0.686955
0.686257
0.685524
0.684754
0.683948
0.683103
0.682219
0.681298
0.680337
0.679337
0.678297
0.677217
0.676097
0.674937
0.673735
0.672501
0.671204
0.669988
0.668536
0.635229
0.635051
0.634908
0.634768
0.634599
0.634395
0.63416
0.633896
0.633606
0.633293
0.632959
0.632606
0.632238
0.631857
0.631466
0.631068
0.630665
0.63026
0.629856
0.629456
0.629062
0.628679
0.628308
0.627952
0.627614
0.627297
0.627004
0.626736
0.626496
0.626287
0.626109
0.625965
0.625855
0.625779
0.625739
0.625737
0.625774
0.625851
0.625968
0.626127
0.626326
0.626566
0.626847
0.627167
0.627528
0.627927
0.628363
0.628837
0.629348
0.629894
0.630474
0.631088
0.631735
0.632412
0.633119
0.633855
0.634619
0.635409
0.636224
0.637062
0.637922
0.638803
0.639703
0.640622
0.641557
0.642507
0.643471
0.644448
0.645436
0.646434
0.647441
0.648455
0.649476
0.650502
0.651533
0.652566
0.653602
0.654638
0.655675
0.656711
0.657746
0.658778
0.659806
0.660831
0.661852
0.662867
0.663876
0.664878
0.665874
0.666862
0.667842
0.668813
0.669775
0.670728
0.67167
0.672602
0.673522
0.674432
0.675329
0.676215
0.677087
0.677947
0.678793
0.679625
0.680443
0.681247
0.682036
0.682809
0.683567
0.68431
0.685036
0.685745
0.686438
0.687113
0.687771
0.688411
0.689032
0.689635
0.690218
0.690782
0.691325
0.691847
0.692348
0.692828
0.693284
0.693719
0.69413
0.694519
0.694883
0.695224
0.695541
0.695832
0.696099
0.696339
0.696554
0.696743
0.696905
0.697039
0.697147
0.697226
0.697276
0.697297
0.697289
0.697249
0.697178
0.697076
0.696941
0.696774
0.696573
0.696339
0.69607
0.695767
0.69543
0.695056
0.694647
0.694202
0.693721
0.693203
0.692647
0.692055
0.691425
0.690758
0.690054
0.689313
0.688535
0.68772
0.686867
0.685975
0.685044
0.684075
0.683066
0.682017
0.680927
0.679796
0.678624
0.677408
0.676158
0.674845
0.673607
0.672131
0.641423
0.641226
0.641065
0.640908
0.640718
0.640491
0.64023
0.639938
0.639619
0.639275
0.63891
0.638525
0.638125
0.637711
0.637288
0.636857
0.636421
0.635984
0.635549
0.635118
0.634695
0.634282
0.633882
0.633498
0.633133
0.632789
0.632469
0.632176
0.631911
0.631676
0.631473
0.631304
0.631169
0.631068
0.631004
0.630978
0.63099
0.631041
0.631132
0.631263
0.631434
0.631645
0.631896
0.632187
0.632516
0.632883
0.633288
0.633729
0.634207
0.634719
0.635266
0.635847
0.636459
0.637103
0.637777
0.63848
0.639211
0.639968
0.640751
0.641557
0.642386
0.643237
0.644108
0.644997
0.645904
0.646827
0.647765
0.648717
0.649681
0.650656
0.651641
0.652635
0.653636
0.654644
0.655657
0.656674
0.657695
0.658718
0.659742
0.660767
0.661791
0.662814
0.663835
0.664854
0.665868
0.666879
0.667884
0.668885
0.669879
0.670866
0.671847
0.672819
0.673784
0.674739
0.675686
0.676622
0.677548
0.678464
0.679369
0.680261
0.681142
0.682011
0.682866
0.683709
0.684537
0.685352
0.686152
0.686937
0.687707
0.688462
0.689201
0.689923
0.690629
0.691317
0.691989
0.692642
0.693277
0.693893
0.69449
0.695067
0.695624
0.696159
0.696673
0.697166
0.697635
0.698083
0.698506
0.698907
0.699283
0.699635
0.699962
0.700264
0.70054
0.700791
0.701015
0.701212
0.701381
0.701523
0.701637
0.701723
0.701778
0.701804
0.701799
0.701763
0.701695
0.701595
0.701461
0.701295
0.701094
0.700859
0.700589
0.700284
0.699944
0.699567
0.699155
0.698705
0.698219
0.697695
0.697134
0.696535
0.695898
0.695224
0.694512
0.693763
0.692976
0.692151
0.691288
0.690387
0.689447
0.688467
0.687448
0.686389
0.685288
0.684146
0.682961
0.681731
0.680464
0.679135
0.677874
0.676361
0.648709
0.648498
0.648322
0.648145
0.647934
0.647682
0.647393
0.647072
0.646722
0.646346
0.645947
0.645528
0.645092
0.644643
0.644184
0.643718
0.643247
0.642775
0.642305
0.641841
0.641384
0.640938
0.640507
0.640091
0.639696
0.639322
0.638972
0.63865
0.638355
0.638091
0.637859
0.63766
0.637495
0.637366
0.637272
0.637215
0.637197
0.637217
0.637276
0.637375
0.637512
0.637689
0.637905
0.63816
0.638452
0.638782
0.639149
0.639552
0.639991
0.640465
0.640972
0.641513
0.642086
0.642691
0.643325
0.643989
0.64468
0.645399
0.646143
0.646912
0.647704
0.648518
0.649353
0.650207
0.65108
0.65197
0.652877
0.653797
0.654731
0.655677
0.656635
0.657602
0.658578
0.659562
0.660552
0.661549
0.662549
0.663553
0.66456
0.665569
0.666578
0.667588
0.668597
0.669604
0.670609
0.671611
0.672609
0.673603
0.674592
0.675575
0.676552
0.677523
0.678486
0.679442
0.680389
0.681327
0.682257
0.683176
0.684085
0.684983
0.685869
0.686745
0.687607
0.688457
0.689295
0.690118
0.690928
0.691723
0.692504
0.693269
0.694019
0.694754
0.695471
0.696172
0.696855
0.697521
0.698168
0.698797
0.699407
0.699997
0.700566
0.701114
0.701641
0.702145
0.702628
0.703087
0.703522
0.703934
0.704322
0.704685
0.705022
0.705334
0.70562
0.70588
0.706112
0.706317
0.706494
0.706644
0.706764
0.706855
0.706916
0.706946
0.706945
0.706911
0.706846
0.706747
0.706614
0.706448
0.706247
0.706011
0.705739
0.705432
0.705088
0.704708
0.70429
0.703836
0.703344
0.702814
0.702246
0.70164
0.700995
0.700313
0.699592
0.698834
0.698037
0.697202
0.696329
0.695417
0.694466
0.693476
0.692445
0.691375
0.690263
0.689108
0.68791
0.686666
0.685384
0.684036
0.682753
0.6812
0.657136
0.656915
0.656723
0.656526
0.656291
0.656012
0.655695
0.655344
0.654961
0.65455
0.654116
0.65366
0.653188
0.652701
0.652203
0.651699
0.65119
0.650681
0.650174
0.649672
0.649179
0.648698
0.648231
0.647782
0.647352
0.646944
0.646561
0.646205
0.645877
0.64558
0.645314
0.645081
0.644882
0.644718
0.644589
0.644498
0.644443
0.644427
0.644449
0.644509
0.644607
0.644744
0.644919
0.645132
0.645382
0.645669
0.645993
0.646352
0.646746
0.647174
0.647637
0.648132
0.648659
0.649217
0.649806
0.650423
0.651069
0.651743
0.652442
0.653166
0.653914
0.654685
0.655478
0.656291
0.657123
0.657973
0.658841
0.659723
0.660621
0.661532
0.662455
0.663389
0.664334
0.665287
0.666249
0.667217
0.668191
0.66917
0.670153
0.67114
0.672128
0.673118
0.674109
0.675099
0.676089
0.677077
0.678062
0.679044
0.680023
0.680997
0.681967
0.68293
0.683888
0.684839
0.685783
0.686719
0.687646
0.688565
0.689474
0.690373
0.691262
0.69214
0.693007
0.693861
0.694704
0.695533
0.696349
0.697152
0.69794
0.698713
0.699472
0.700215
0.700942
0.701652
0.702346
0.703022
0.70368
0.704319
0.704939
0.70554
0.70612
0.706679
0.707217
0.707732
0.708225
0.708695
0.709141
0.709563
0.70996
0.710333
0.71068
0.711001
0.711295
0.711563
0.711803
0.712015
0.712199
0.712355
0.71248
0.712576
0.712641
0.712675
0.712677
0.712646
0.712582
0.712484
0.712352
0.712185
0.711983
0.711745
0.711471
0.71116
0.710813
0.710428
0.710006
0.709546
0.709047
0.70851
0.707935
0.707321
0.706668
0.705977
0.705247
0.704478
0.703671
0.702826
0.701941
0.701018
0.700056
0.699054
0.698012
0.69693
0.695806
0.694639
0.693428
0.69217
0.690872
0.689507
0.688203
0.686612
0.666762
0.666531
0.666322
0.666102
0.665842
0.665536
0.665189
0.664805
0.664388
0.663941
0.663469
0.662975
0.662463
0.661936
0.661398
0.660853
0.660303
0.659753
0.659206
0.658665
0.658133
0.657613
0.657107
0.656619
0.656152
0.655706
0.655286
0.654892
0.654527
0.654191
0.653887
0.653615
0.653378
0.653174
0.653006
0.652874
0.652778
0.652719
0.652698
0.652714
0.652768
0.652859
0.652988
0.653153
0.653355
0.653593
0.653866
0.654175
0.654518
0.654895
0.655305
0.655748
0.656223
0.656728
0.657264
0.657829
0.658423
0.659043
0.659691
0.660363
0.66106
0.661781
0.662523
0.663287
0.664071
0.664874
0.665695
0.666532
0.667386
0.668253
0.669135
0.670028
0.670933
0.671849
0.672773
0.673706
0.674647
0.675593
0.676546
0.677502
0.678463
0.679426
0.680391
0.681358
0.682325
0.683291
0.684257
0.685221
0.686182
0.687141
0.688096
0.689047
0.689992
0.690933
0.691867
0.692794
0.693715
0.694627
0.695531
0.696427
0.697312
0.698188
0.699053
0.699907
0.70075
0.701581
0.702399
0.703204
0.703995
0.704773
0.705536
0.706284
0.707016
0.707732
0.708432
0.709115
0.70978
0.710427
0.711055
0.711663
0.712251
0.712818
0.713364
0.713888
0.714389
0.714867
0.715321
0.715751
0.716157
0.716537
0.716891
0.717219
0.71752
0.717795
0.718041
0.718259
0.718448
0.718608
0.718738
0.718838
0.718906
0.718942
0.718946
0.718916
0.718853
0.718755
0.718622
0.718454
0.71825
0.71801
0.717733
0.717418
0.717067
0.716677
0.716249
0.715782
0.715277
0.714733
0.71415
0.713527
0.712866
0.712165
0.711425
0.710646
0.709828
0.708971
0.708076
0.707141
0.706167
0.705153
0.704099
0.703005
0.701869
0.700689
0.699466
0.698195
0.696883
0.695502
0.694179
0.692554
0.677647
0.677407
0.67718
0.676936
0.676649
0.676313
0.675933
0.675515
0.675061
0.674576
0.674064
0.673529
0.672975
0.672405
0.671824
0.671235
0.670642
0.670049
0.669458
0.668874
0.668299
0.667736
0.667188
0.666658
0.666149
0.665662
0.665199
0.664763
0.664355
0.663977
0.66363
0.663315
0.663033
0.662785
0.662572
0.662394
0.662251
0.662145
0.662075
0.662041
0.662044
0.662083
0.662159
0.66227
0.662417
0.6626
0.662817
0.663069
0.663354
0.663673
0.664025
0.664408
0.664823
0.665269
0.665745
0.66625
0.666783
0.667344
0.667931
0.668545
0.669183
0.669844
0.670529
0.671235
0.671963
0.67271
0.673476
0.674259
0.675059
0.675875
0.676706
0.67755
0.678407
0.679276
0.680155
0.681044
0.681941
0.682847
0.683759
0.684677
0.685601
0.686529
0.68746
0.688394
0.68933
0.690267
0.691205
0.692142
0.693078
0.694013
0.694946
0.695875
0.696801
0.697723
0.698641
0.699552
0.700458
0.701357
0.702249
0.703133
0.704009
0.704876
0.705734
0.706581
0.707418
0.708243
0.709058
0.709859
0.710649
0.711424
0.712186
0.712934
0.713667
0.714384
0.715086
0.71577
0.716438
0.717088
0.717719
0.718331
0.718923
0.719494
0.720044
0.720573
0.721078
0.721561
0.722021
0.722456
0.722866
0.723251
0.72361
0.723942
0.724248
0.724526
0.724776
0.724998
0.72519
0.725353
0.725486
0.725587
0.725657
0.725694
0.725698
0.725668
0.725605
0.725506
0.725371
0.725201
0.724994
0.724751
0.72447
0.724151
0.723794
0.723398
0.722964
0.722491
0.721978
0.721427
0.720835
0.720203
0.719533
0.718822
0.718072
0.717283
0.716454
0.715586
0.714679
0.713732
0.712746
0.711721
0.710655
0.709549
0.708401
0.70721
0.705975
0.704692
0.703368
0.701972
0.700633
0.69898
0.689864
0.689614
0.689366
0.689096
0.688778
0.68841
0.687995
0.687539
0.687046
0.68652
0.685965
0.685385
0.684785
0.684169
0.683541
0.682905
0.682265
0.681624
0.680986
0.680355
0.679732
0.679123
0.678529
0.677952
0.677396
0.676862
0.676353
0.67587
0.675415
0.674989
0.674594
0.67423
0.673899
0.673601
0.673337
0.673107
0.672911
0.672751
0.672626
0.672537
0.672483
0.672464
0.672481
0.672532
0.672618
0.672738
0.672893
0.67308
0.673301
0.673555
0.67384
0.674157
0.674505
0.674883
0.675291
0.675728
0.676193
0.676686
0.677205
0.67775
0.67832
0.678914
0.679532
0.680172
0.680833
0.681515
0.682216
0.682936
0.683674
0.684429
0.685199
0.685984
0.686782
0.687594
0.688417
0.689252
0.690097
0.690951
0.691813
0.692683
0.693559
0.694442
0.695329
0.69622
0.697115
0.698013
0.698913
0.699814
0.700715
0.701617
0.702518
0.703417
0.704314
0.705209
0.7061
0.706987
0.707869
0.708747
0.709618
0.710483
0.711341
0.712191
0.713032
0.713865
0.714688
0.715502
0.716304
0.717096
0.717876
0.718643
0.719398
0.720138
0.720865
0.721577
0.722274
0.722955
0.723619
0.724266
0.724895
0.725506
0.726096
0.726667
0.727217
0.727745
0.728251
0.728735
0.729195
0.729631
0.730042
0.730428
0.730788
0.731122
0.731429
0.731708
0.731959
0.732181
0.732374
0.732537
0.73267
0.732771
0.73284
0.732876
0.732879
0.732848
0.732782
0.732681
0.732543
0.732369
0.732159
0.731911
0.731625
0.731301
0.730938
0.730536
0.730095
0.729615
0.729095
0.728535
0.727934
0.727294
0.726614
0.725893
0.725133
0.724333
0.723493
0.722614
0.721695
0.720737
0.71974
0.718703
0.717626
0.716509
0.715349
0.714147
0.712902
0.711608
0.710273
0.708865
0.707513
0.705836
0.703491
0.703228
0.702958
0.702658
0.702306
0.701901
0.701447
0.700949
0.700411
0.699838
0.699235
0.698606
0.697956
0.697289
0.696609
0.695921
0.695229
0.694536
0.693846
0.693162
0.692488
0.691826
0.69118
0.690552
0.689945
0.689359
0.688798
0.688263
0.687755
0.687276
0.686828
0.686409
0.686023
0.685669
0.685348
0.68506
0.684806
0.684586
0.6844
0.684248
0.684131
0.684047
0.683998
0.683982
0.684
0.684051
0.684135
0.684252
0.684401
0.684581
0.684793
0.685035
0.685308
0.68561
0.685942
0.686302
0.68669
0.687105
0.687546
0.688014
0.688507
0.689024
0.689564
0.690128
0.690713
0.691319
0.691946
0.692592
0.693256
0.693938
0.694637
0.695351
0.69608
0.696824
0.697581
0.69835
0.69913
0.699921
0.700722
0.701532
0.70235
0.703175
0.704007
0.704845
0.705688
0.706535
0.707385
0.708239
0.709094
0.709952
0.71081
0.711668
0.712526
0.713382
0.714237
0.71509
0.715939
0.716784
0.717625
0.718461
0.719291
0.720114
0.720931
0.72174
0.722541
0.723333
0.724116
0.724889
0.725651
0.726402
0.727141
0.727867
0.72858
0.72928
0.729965
0.730635
0.731289
0.731927
0.732547
0.733149
0.733733
0.734297
0.73484
0.735363
0.735864
0.736343
0.736799
0.737231
0.737639
0.738021
0.738378
0.738709
0.739013
0.739289
0.739538
0.739757
0.739948
0.740109
0.740238
0.740336
0.740402
0.740435
0.740434
0.7404
0.740329
0.740224
0.740082
0.739903
0.739687
0.739434
0.739142
0.738812
0.738443
0.738034
0.737585
0.737097
0.736569
0.736
0.735391
0.734742
0.734052
0.733322
0.732551
0.731741
0.73089
0.73
0.729071
0.728102
0.727093
0.726045
0.724957
0.723829
0.72266
0.721448
0.720193
0.71889
0.717546
0.716129
0.714766
0.713073
0.718615
0.718337
0.71804
0.717705
0.717314
0.716866
0.716366
0.715818
0.715229
0.714603
0.713945
0.71326
0.712552
0.711827
0.711089
0.710342
0.70959
0.708839
0.70809
0.707348
0.706616
0.705897
0.705193
0.704508
0.703842
0.7032
0.702581
0.701987
0.701421
0.700883
0.700375
0.699896
0.699448
0.699032
0.698648
0.698296
0.697976
0.69769
0.697436
0.697215
0.697027
0.696872
0.69675
0.69666
0.696602
0.696576
0.696582
0.69662
0.696688
0.696787
0.696916
0.697075
0.697264
0.697481
0.697727
0.698001
0.698302
0.69863
0.698984
0.699364
0.699769
0.700199
0.700651
0.701127
0.701625
0.702145
0.702685
0.703245
0.703824
0.704421
0.705037
0.705668
0.706316
0.706979
0.707656
0.708347
0.709051
0.709767
0.710493
0.711231
0.711978
0.712733
0.713497
0.714269
0.715047
0.715831
0.71662
0.717414
0.718211
0.719012
0.719816
0.720621
0.721427
0.722234
0.723041
0.723847
0.724651
0.725453
0.726253
0.727049
0.72784
0.728627
0.729408
0.730184
0.730952
0.731713
0.732466
0.733211
0.733946
0.734671
0.735385
0.736088
0.736779
0.737458
0.738123
0.738774
0.73941
0.740031
0.740635
0.741222
0.741791
0.742342
0.742873
0.743384
0.743873
0.744342
0.744787
0.74521
0.745609
0.745983
0.746332
0.746655
0.746952
0.747221
0.747462
0.747676
0.74786
0.748014
0.748137
0.74823
0.748289
0.748316
0.748309
0.748268
0.748192
0.74808
0.747932
0.747747
0.747524
0.747264
0.746965
0.746627
0.74625
0.745834
0.745377
0.744881
0.744344
0.743767
0.743149
0.74249
0.741791
0.741051
0.74027
0.73945
0.738589
0.737688
0.736748
0.735769
0.73475
0.733692
0.732594
0.731456
0.730278
0.729057
0.727794
0.726484
0.725132
0.723709
0.722338
0.720634
0.735336
0.735038
0.734707
0.73433
0.733892
0.733392
0.732836
0.732229
0.731578
0.730888
0.730164
0.729411
0.728636
0.727842
0.727036
0.726221
0.725402
0.724583
0.723768
0.72296
0.722163
0.721379
0.72061
0.71986
0.719131
0.718424
0.71774
0.717082
0.716451
0.715847
0.715272
0.714727
0.714211
0.713726
0.713271
0.712848
0.712456
0.712095
0.711767
0.711469
0.711203
0.710968
0.710765
0.710593
0.710451
0.71034
0.710259
0.710209
0.710188
0.710196
0.710234
0.7103
0.710395
0.710518
0.710668
0.710845
0.711049
0.711279
0.711535
0.711816
0.712122
0.712452
0.712805
0.713182
0.71358
0.714
0.714442
0.714903
0.715385
0.715885
0.716404
0.71694
0.717493
0.718062
0.718646
0.719246
0.719859
0.720486
0.721125
0.721776
0.722438
0.723111
0.723793
0.724485
0.725185
0.725892
0.726607
0.727327
0.728054
0.728785
0.72952
0.73026
0.731002
0.731747
0.732493
0.73324
0.733987
0.734734
0.73548
0.736224
0.736965
0.737704
0.738438
0.739169
0.739894
0.740613
0.741326
0.742031
0.742729
0.743418
0.744098
0.744768
0.745428
0.746076
0.746712
0.747335
0.747945
0.74854
0.74912
0.749684
0.750231
0.750761
0.751272
0.751763
0.752235
0.752686
0.753115
0.753522
0.753906
0.754266
0.754601
0.754911
0.755195
0.755453
0.755683
0.755885
0.756059
0.756203
0.756316
0.756399
0.756449
0.756467
0.756451
0.756401
0.756316
0.756195
0.756038
0.755844
0.755613
0.755345
0.755037
0.754691
0.754306
0.75388
0.753415
0.75291
0.752364
0.751778
0.751151
0.750483
0.749774
0.749024
0.748234
0.747404
0.746533
0.745623
0.744673
0.743684
0.742655
0.741588
0.740481
0.739335
0.738148
0.73692
0.73565
0.734335
0.732979
0.731551
0.730176
0.728466
0.754348
0.75402
0.753646
0.753214
0.752712
0.752143
0.751512
0.750827
0.750094
0.749319
0.748509
0.74767
0.746808
0.745929
0.745038
0.744139
0.743237
0.742337
0.741441
0.740554
0.739679
0.738817
0.737973
0.737147
0.736342
0.735559
0.7348
0.734067
0.733359
0.732679
0.732027
0.731403
0.730808
0.730242
0.729706
0.7292
0.728723
0.728277
0.727861
0.727474
0.727117
0.726791
0.726493
0.726225
0.725987
0.725777
0.725596
0.725443
0.725319
0.725223
0.725154
0.725113
0.725098
0.725111
0.72515
0.725215
0.725305
0.725421
0.725562
0.725728
0.725918
0.726132
0.726368
0.726628
0.72691
0.727213
0.727538
0.727883