/*--------------------------------*- C++ -*----------------------------------*\
  =========                 |
  \\      /  F ield         | OpenFOAM: The Open Source CFD Toolbox
   \\    /   O peration     | Website:  https://openfoam.org
    \\  /    A nd           | Version:  7
     \\/     M anipulation  |
\*---------------------------------------------------------------------------*/
FoamFile
{
    version     2.0;
    format      ascii;
    class       surfaceScalarField;
    location    "1.6";
    object      alphaPhi0.water;
}
// * * * * * * * * * * * * * * * * * * * * * * * * * * * * * * * * * * * * * //

dimensions      [0 3 -1 0 0 0 0];

internalField   nonuniform List<scalar> 
11840
(
0
0
0
0
0
0
0
0
0
0
0
0
0
0
0
0
0
0
0
0
0
0
0
0
0
0
0
0
0
0
0
0
0
0
0
0
0
0
0
0
0
0
0
0
0
0
0
0
0
0
0
0
0
0
0
0
0
0
0
0
0
0
0
0
0
0
0
0
0
0
0
0
0
0
0
0
0
0
0
0
0
0
0
0
0
0
0
0
0
0
0
0
0
0
0
0
0
0
0
0
0
0
0
0
0
0
0
0
0
0
0
0
0
0
0
0
0
0
0
0
0
0
0
0
0
0
0
0
0
0
0
0
0
0
0
0
0
0
0
0
0
0
0
0
0
0
0
0
0
0
0
0
0
0
0
0
0
0
0
0
0
0
0
0
0
0
0
0
0
0
0
0
0
0
0
0
0
0
0
0
0
0
0
0
0
0
0
0
0
0
0
0
0
0
0
0
0
0
0
0
0
0
0
0
0
0
0
0
0
0
0
0
0
0
0
0
0
0
0
0
0
0
0
0
0
0
0
0
0
0
0
0
0
0
0
0
0
1.4090063021786e-200
-3.0816809127509e-202
8.2759315247221e-201
4.137965762361e-201
4.2934730049426e-201
-2.6328742194858e-202
7.8073676348245e-202
3.5129750614704e-201
1.4207662931607e-202
6.3847767302239e-202
6.9838361248354e-203
0
3.1704180728737e-203
0
5.8030368111079e-204
2.5560468623188e-203
1.0642217159727e-204
4.7376604466252e-204
2.5511711292785e-205
5.2637240270394e-205
1.1002915306459e-205
0
4.3207237450155e-206
0
1.2979700774194e-206
1.8465369536827e-206
4.1786131765845e-207
2.0893065882923e-207
1.3876342738487e-207
0
4.3594355131824e-208
0
1.3092305092401e-208
0
3.5698044877343e-209
1.7855994413484e-209
9.5084151887971e-210
4.7569930588974e-210
2.6128808448157e-210
0
7.0035372486878e-211
0
1.75505274121e-211
8.775314606281e-212
4.5261810918001e-212
0
1.1010694634217e-212
5.5053493129691e-213
2.6469434328557e-213
1.3234717164279e-213
6.2941062495788e-214
3.1470531665257e-214
1.5355652223209e-214
0
3.700218277405e-215
0
8.5327834873062e-216
4.2663917443683e-216
2.0145924478609e-216
0
4.5702687759134e-217
2.2851343879762e-217
1.0602287321019e-217
0
2.438842669883e-218
0
5.4172567341434e-219
2.7086283670719e-219
1.2258345738959e-219
0
2.6889782488218e-220
1.3444891244109e-220
5.8697031160456e-221
2.9348515580228e-221
1.2766134656941e-221
5.7745283132713e-222
2.7612699792975e-222
1.3806349896487e-222
5.9478665883491e-223
2.9586430114597e-223
1.2760220223477e-223
6.3801101117383e-224
2.7271128806201e-224
1.3631986991218e-224
5.8072153784775e-225
2.9036076892388e-225
1.2323177998755e-225
6.1615889993774e-226
2.6063460153343e-226
1.3031730076671e-226
5.4948586722182e-227
2.7474293361091e-227
1.1549227068516e-227
5.774613534258e-228
2.4203305095402e-228
1.2101652547701e-228
5.0579214220826e-229
2.5289607110413e-229
1.0541259801321e-229
5.2706298931645e-230
2.1911933642835e-230
1.0955966821417e-230
4.5433779943212e-231
2.2716889970113e-231
9.3978161932209e-232
4.6989080966105e-232
1.9393791717895e-232
9.696895858908e-233
3.9932087783123e-233
1.9966043891562e-233
8.2042478107862e-234
4.1021239053931e-234
1.6820744363117e-234
8.4103721815584e-235
3.4416915957253e-235
1.7208457978627e-235
7.0282644718326e-236
3.5141322359163e-236
1.4325221134986e-236
7.162610567493e-237
2.9144595893985e-237
1.4572297946992e-237
5.9189317642946e-238
2.9594658821473e-238
1.1999998296126e-238
5.999999148063e-239
2.4288151350549e-239
1.2144075675275e-239
4.9080050587709e-240
2.4540025293855e-240
9.9022452663847e-241
4.9511226331923e-241
1.9948050131115e-241
9.9740250655577e-242
4.0125865676214e-242
2.0062932838107e-242
8.0597924161876e-243
4.0298962080939e-243
1.6166510686064e-243
8.0832553430322e-244
3.2383107361014e-244
1.6191553680507e-244
6.4780849956009e-245
3.2390424978004e-245
1.2942438750769e-245
6.4712193753847e-246
2.5825086955547e-246
1.2912543477774e-246
5.1468074934046e-247
2.5734037467023e-247
1.0245147660302e-247
5.1225738301511e-248
2.0370226962217e-248
1.0185113481108e-248
4.0456056400968e-249
2.0228028200484e-249
8.0258948829097e-250
4.0129474414549e-250
1.5905136178835e-250
7.9525680894175e-251
1.9623114821784e-251
0
0
0
0
0
0
0
0
0
0
0
0
0
0
0
0
0
0
0
0
0
0
0
0
0
0
0
0
0
0
0
0
0
0
0
0
0
0
6.5730518190263e-136
3.2865259095132e-136
8.3724030328747e-135
4.1862015164374e-135
3.1277401862505e-135
1.5638700931253e-135
6.0157843818541e-136
4.3029320687407e-136
6.0143239798493e-136
0
7.6396134941083e-137
1.6288619724699e-135
7.6355862743574e-137
0
4.1420387683538e-137
0
9.2988140835424e-139
4.0490506275184e-137
9.2930392770283e-139
0
4.1837994164752e-139
0
9.8420957129399e-140
0
4.901338443982e-140
0
1.4728842008213e-141
4.7540500238998e-140
1.1771998011165e-141
0
4.5075735173035e-142
0
7.3004856850715e-143
0
4.0325291407874e-143
0
1.1744567309879e-144
3.9150834676886e-143
5.8697825120803e-145
0
4.7995355682882e-146
0
4.7946693430309e-146
0
3.7905753077294e-147
0
3.787781220683e-147
0
6.5516918994293e-149
3.7222643016887e-147
3.6398023993811e-149
0
1.8736989143903e-149
0
9.7453504282821e-151
0
3.3761469850425e-151
0
9.3293236079748e-152
0
1.7742282000342e-152
0
9.4011925312326e-153
0
4.6159527978214e-154
0
1.6528131341345e-154
0
1.148949338957e-154
0
4.4097932847849e-155
0
7.8339107493269e-156
3.6264022098522e-155
2.3682249793489e-156
0
4.2682782740416e-157
1.9413971519447e-156
1.2310382399075e-157
0
2.23722859208e-158
1.0073153806995e-157
6.2626846736161e-159
0
1.7119880194579e-159
0
3.1126966508454e-160
1.4007183543733e-159
8.3312825743029e-161
0
1.5147784119294e-161
6.8165041623735e-161
2.7541425459703e-162
1.2393641573324e-161
7.2326235409037e-163
0
1.3150224585174e-163
5.9176010823862e-163
3.3943900471855e-164
0
6.1716182668514e-165
2.7772282205004e-164
1.5682927821815e-165
0
3.9286925779378e-166
0
9.713629441775e-167
0
2.3729308071658e-167
0
4.3144196493922e-168
1.9414888422265e-167
7.8443993625313e-169
3.529979713139e-168
1.8951246715202e-169
0
4.5315799054379e-170
0
8.2392361917053e-171
3.7076562862674e-170
1.9514298337894e-171
0
3.5480542432536e-172
1.5966244094641e-171
8.3290836725673e-173
0
1.5143788495577e-173
6.8147048230096e-173
3.5256591678065e-174
0
8.1447452601671e-175
0
1.8679127099195e-175
0
4.2546974032837e-176
0
7.7358134605158e-177
3.4811160572321e-176
1.7507542869972e-177
0
3.938315581533e-178
0
7.1605737846057e-179
3.2222582030725e-178
1.6015660666506e-179
0
2.9119383030012e-180
1.3103722363505e-179
6.4777565271157e-181
0
1.4336249275195e-181
0
3.1573916554916e-182
0
6.9216288586282e-183
0
1.258477974296e-183
5.6631508843322e-183
2.746689932248e-184
0
0
0
0
0
0
0
0
0
0
0
0
0
0
0
0
0
0
0
0
0
0
0
0
0
0
0
0
0
0
0
0
0
0
0
0
-2.6331328557025e-77
-1.3165664278513e-77
-1.1011152357835e-76
-5.5055761789176e-77
-1.4884603552253e-76
-7.4423017761264e-77
-8.7024934894337e-77
-4.3512467447168e-77
-2.672490077075e-77
-1.3362450385375e-77
-6.8412883829392e-78
-3.4206441914696e-78
5.0446029589924e-59
3.1861838222727e-59
3.3586869632942e-58
2.2726451794908e-58
1.6791852762817e-57
1.1560931092961e-57
7.9664000425672e-57
5.5715106953595e-57
3.2006213060284e-56
2.276996759228e-56
1.2967523333197e-55
8.6782102442038e-56
1.2959489720622e-53
8.0498671928041e-54
6.1419306732046e-52
3.4295466583089e-52
2.8784982739977e-51
1.9924285567928e-51
1.2782506688235e-50
8.6865804709199e-51
1.0002412209976e-49
6.0045626152751e-50
3.6583865360564e-49
2.5736038198519e-49
1.5671342144174e-48
1.0042654521454e-48
4.366571396563e-48
3.3615096997584e-48
9.1355774060728e-48
7.3122347434633e-48
1.6436394854558e-47
1.4126965905945e-47
2.0034311346309e-47
1.8847181371939e-47
2.5284604820623e-47
2.4016682176684e-47
2.8865712294362e-47
2.5292207155492e-47
4.5598331217594e-47
3.098489212421e-47
9.1657155567367e-47
4.3360562194046e-47
9.5794216494798e-47
8.3019502575248e-47
1.0874429885873e-46
6.7918191263576e-47
1.1634604513426e-46
7.3974093086682e-47
1.170822696382e-46
6.6239820789633e-47
6.7688033669182e-47
8.0762688090131e-47
2.5826240750677e-47
3.2428560144465e-47
5.1953657616877e-48
1.1443305301577e-47
9.000389336199e-49
2.9108280116787e-48
1.5231905596049e-49
6.0282213685214e-49
3.4294229806705e-50
9.0220806810732e-50
6.6994264668471e-51
2.5490327602599e-50
1.050309501937e-51
5.2918337153093e-51
2.5976464893071e-52
6.5094840873271e-52
3.9916393465496e-53
2.0583055159839e-52
9.9396575320923e-54
2.4836317533695e-53
1.5166977539694e-54
7.8929804644999e-54
2.8755330596075e-55
1.1366960704434e-54
7.1754786760812e-56
1.7939599276613e-55
1.0855704670244e-56
5.7156478775514e-56
2.8136736334094e-57
6.7430602569344e-57
5.1312687995633e-58
2.1591044093583e-57
7.7919625242276e-59
4.1033631171136e-58
1.9485570142471e-59
4.8654489136639e-59
2.9361444825042e-60
1.5536947032452e-59
7.6216641106295e-61
1.8239709631189e-60
1.3892127477862e-61
5.8488911572927e-61
2.1339514929315e-62
1.1087523895481e-61
4.5754168932611e-63
1.3570519791065e-62
8.2830439848944e-64
3.3534418048114e-63
2.1268384824355e-64
5.1004550053292e-64
3.8712513261355e-65
1.6305312591034e-64
5.828300947628e-66
3.0971947348208e-65
1.5182742477025e-66
3.6154938751402e-66
2.8049484785329e-67
1.1601521596367e-66
5.3544920554437e-68
2.176528969005e-67
9.8044994156734e-69
4.1231211046932e-68
1.4696077813499e-69
7.8455579443408e-69
2.847925791529e-70
1.0935176237407e-69
6.3294076910571e-71
1.7965299164504e-70
1.3015800486778e-71
3.8614272765109e-71
2.3615062192353e-72
9.2317794250832e-72
5.9957709843148e-73
1.4447537465468e-72
1.0927904737124e-73
4.586012889931e-73
1.6608669364824e-74
8.7184287404208e-74
3.6457049234193e-75
1.049078265553e-74
8.5744532995009e-76
2.1854245430861e-75
1.2848745896813e-76
6.7945572469187e-76
2.4489740525786e-77
9.5769542168767e-77
5.3972383437185e-78
1.5458646257311e-77
1.1419099750416e-78
3.2773784871314e-78
2.3458151414246e-79
7.2697927810667e-79
5.4287518223956e-80
1.3970252912685e-79
8.1720086966273e-81
4.2949329518385e-80
1.7589307041286e-81
5.1633116894707e-81
4.2265687736962e-82
1.0513615928638e-81
3.088387365706e-82
0
0
0
0
0
0
0
0
0
0
0
0
0
0
0
0
0
0
9.1413939993405e-47
4.6595910849863e-47
1.9867342851082e-45
1.2000807629632e-45
6.2724275648224e-45
3.8255448076067e-45
4.6947034751411e-44
4.6747316769876e-44
1.7423866873702e-44
3.3182747635212e-44
3.4763597402469e-45
1.3947507133455e-44
6.3575528644935e-46
2.8406044537975e-45
1.4072439887636e-46
4.9503088757299e-46
1.06628602879e-42
0
1.9411012152283e-43
8.7217590727154e-43
3.5298525697473e-44
1.5881159582535e-43
6.4179135219736e-45
2.8880612175499e-44
1.166894053364e-45
5.2510194686096e-45
1.5140623701863e-44
0
2.7528407105091e-45
1.2387782991354e-44
5.005164927826e-46
2.2523242177271e-45
9.1002998695041e-47
4.0951349409063e-46
1.6545999767416e-47
7.4456998942261e-47
3.008363613133e-48
1.3537636213796e-47
5.469752770931e-49
2.4613885712059e-48
9.9456385093205e-50
4.47541483732e-49
2.7888446017116e-46
0
5.070857643201e-47
2.2818259981184e-46
9.2270630576128e-48
4.1504758720678e-47
9.0965869993764e-46
0
1.6568669350918e-46
7.4480724030054e-46
3.6538457224707e-43
0
3.6543244525416e-43
0
1.3283549293708e-44
3.5216922221459e-43
1.3664903726774e-44
0
2.5035037462389e-45
1.1204042599426e-44
4.211722223272e-46
2.1316285948453e-45
9.3912834349481e-47
0
9.3819753934261e-47
5.4354604192418e-47
7.6651538763385e-47
6.79029700061e-47
4.5420261339923e-46
0
2.3461532256528e-46
3.2848118518573e-46
1.4863993253974e-46
1.4093717942973e-46
2.1200427218225e-46
7.6303544798357e-47
1.0695456565103e-46
0
1.5838378917765e-46
0
3.4283240561045e-47
1.2051524014766e-46
9.4860719250951e-48
2.0435617396328e-47
2.0643336998447e-48
7.6025026481613e-48
4.4077318056028e-49
0
4.5292977683514e-49
0
6.3785257437214e-50
3.9193137475269e-49
3.800341750422e-50
0
5.148162034913e-51
3.2964519776939e-50
3.1125651836861e-51
0
7.2005395755013e-53
3.0447646885609e-51
7.244814740479e-53
0
4.1646404647231e-53
0
5.59135560924e-54
3.6085545945414e-53
3.1879024309497e-54
0
5.8054506855059e-55
2.6085070536732e-54
7.7671901729283e-56
5.0309351438421e-55
4.4115454108817e-56
0
5.8326068234281e-57
3.8291098501386e-56
3.4370265214252e-57
0
1.0702872222676e-58
3.3303072147001e-57
1.070699363678e-58
0
1.211394961169e-59
0
1.2109984942454e-59
0
7.2286256788682e-60
0
1.2370442492615e-60
5.9916662705953e-60
2.2493024866651e-61
1.0121302682971e-60
3.5353282178557e-62
0
3.5341870942407e-62
0
1.1690599991863e-63
3.4172925982372e-62
1.1686850891317e-63
0
4.6629386120428e-65
1.1220597981789e-63
4.2649689096747e-65
0
1.1022584086275e-65
0
4.5532287567801e-66
0
4.321185740622e-66
0
6.9838075071908e-67
0
6.9816118265952e-67
0
1.3310406880769e-68
6.8485082037768e-67
9.5846190575814e-69
0
7.1315166413955e-69
0
2.8886279975778e-70
6.8426541795107e-69
2.6684465432801e-70
0
7.6885421048768e-71
0
3.0277735751482e-71
0
2.8752682177408e-71
0
4.4321824165971e-72
0
4.4307196665563e-72
0
5.2724475045493e-73
0
4.1648503873386e-73
0
0
0
0
0
0
0
0
0
0
0
0
0
0
0
0
2.9532302932286e-37
1.4792619297052e-37
2.053680444476e-35
1.04068799862e-35
6.9369065142641e-34
3.5633176040056e-34
1.5107332259179e-32
7.8775707623485e-33
2.3943183739226e-31
1.269301597965e-31
2.9041205940182e-30
1.5697196305959e-30
2.7406731601633e-29
1.512833475021e-29
2.13711394239e-28
1.1971063513323e-28
1.5651943316335e-27
8.7888598516851e-28
1.173897003278e-26
6.5716943700763e-27
8.6918424976637e-26
4.8809174744856e-26
5.9143768963584e-25
3.3630654293416e-25
3.5465637206844e-24
2.0555425466533e-24
1.8379478723332e-23
1.0911337150654e-23
8.1783893589758e-23
4.9927711075493e-23
3.1272225503344e-22
1.9689739450962e-22
1.0317430451572e-21
6.7149010679655e-22
2.9543378505849e-21
1.9908054433997e-21
7.400592520931e-21
5.167375653481e-21
1.6391780482026e-20
1.1853816255034e-20
3.25397601963e-20
2.4326747710457e-20
5.8764262671842e-20
4.5298948163306e-20
9.7794330236799e-20
7.7576887856698e-20
1.507607488521e-19
1.2322374942006e-19
2.1258447024974e-19
1.8088838921373e-19
2.6221256176896e-19
2.3844762163258e-19
2.764356024089e-19
2.6974756296746e-19
2.7685452513817e-19
2.7324604820809e-19
2.6533275471512e-19
2.6681456781171e-19
2.3533022037046e-19
2.4609027289269e-19
1.8361465047017e-19
2.0512434160001e-19
1.2072111368196e-19
1.4826656485011e-19
6.3729570140147e-20
8.8983426422262e-20
2.6066456305397e-20
4.2644859495528e-20
8.3682562521199e-21
1.6104806146586e-20
2.3066191568277e-21
4.9988021684851e-21
6.1568381313017e-22
1.3996869747558e-21
1.708533349032e-22
3.8638232944792e-22
4.9970942903532e-23
1.0998398939995e-22
1.5265936856336e-23
3.261944908543e-23
4.8146567990213e-24
1.0038986632914e-23
1.5502651642976e-24
3.178282080093e-24
5.036353659599e-25
1.0240103437433e-24
1.6308905467242e-25
3.3176986290487e-25
5.2088206874711e-26
1.0684791231417e-25
1.6291398759417e-26
3.388879769637e-26
4.9753476063516e-27
1.0525587496356e-26
1.4848720397146e-27
3.1956570308263e-27
4.343715772303e-28
9.4958862149669e-28
1.2498273218871e-28
2.7693845141834e-28
3.5470159231088e-29
7.9502807950749e-29
9.9464211826541e-30
2.2518190583096e-29
2.7586638574908e-30
6.3022570248693e-30
7.572649870104e-31
1.7445882345442e-30
2.0586113461651e-31
4.7801101785504e-31
5.5455723940074e-32
1.2972209559765e-31
1.4812516449415e-32
3.4889502253937e-32
3.9252288816796e-33
9.3054739742859e-33
1.0324498012724e-33
2.4625140515261e-33
2.6966753557158e-34
6.4687807654461e-34
6.9970015972919e-35
1.6875376875757e-34
1.8041442539138e-35
4.3735807993178e-35
4.6243001627745e-36
1.1264805206756e-35
1.1785938728273e-36
2.884366183463e-36
2.9877426928517e-37
7.3441766949618e-37
7.5351360009158e-38
1.8600190968816e-37
1.8910698200214e-38
4.6868346814443e-38
4.7237275722656e-39
1.1752439852161e-38
1.1746501220386e-39
2.9332802577248e-39
2.9084274163284e-40
7.2885414618289e-40
7.1714694275996e-41
1.8032992405619e-40
1.7612767264775e-41
4.4433274466236e-41
4.3090488612871e-42
1.0905124386233e-41
1.0503412438997e-42
2.666237163387e-42
2.5511247666747e-43
6.4949058959337e-43
6.1750285681646e-44
1.5765557149532e-43
1.4897138031652e-44
3.8138294606727e-44
3.5823751148457e-45
9.1955720999463e-45
8.5879348196515e-46
2.2100852029853e-45
2.052572789899e-46
5.2953748033162e-46
4.8914878525826e-47
1.2649811932764e-46
1.1623965944798e-47
3.0130833475474e-47
2.7547046082801e-48
7.1567511370267e-48
6.5108504726406e-49
1.6952527380641e-48
1.5348831794529e-49
4.0049865775083e-49
3.6092695232851e-50
9.4373132601538e-50
8.4664006492076e-51
2.2182359238552e-50
1.9813015100233e-51
5.201231731398e-51
4.625069020689e-52
1.2167434668668e-51
1.0791436341975e-52
2.8381637932356e-52
2.4667918413001e-53
6.6443277792989e-53
6.6707444343528e-54
1.4589449078418e-53
5.1799368514654e-54
0
0
0
0
0
0
0
0
0
0
0
0
2.708752770679e-37
1.3501113571339e-37
2.7586199087146e-35
1.3745896895589e-35
1.2653106674155e-33
6.3391457430825e-34
3.6193087243664e-32
1.8293276912725e-32
7.3392783590323e-31
3.7518918055588e-31
1.1353876686731e-29
5.8835638896072e-30
1.3878613661001e-28
7.3113002332604e-29
1.3611293694267e-27
7.3104523489398e-28
1.0972115286363e-26
6.0187167701304e-27
7.4398371979182e-26
4.1540736018264e-26
4.5655526421503e-25
2.5552105910121e-25
2.9420312955143e-24
1.626963299721e-24
1.9820362652558e-23
1.0908092373823e-23
1.2257543652602e-22
6.867070021535e-23
6.7365331772722e-22
3.8713207485206e-22
3.2601950258006e-21
1.9239109732885e-21
1.354152152678e-20
8.2582908735323e-21
4.7398519050375e-20
3.0067523980696e-20
1.3902340348642e-19
9.2149424985931e-20
3.4335234770488e-19
2.38220854578e-19
7.2576397752459e-19
5.2573738347974e-19
1.3508104238286e-18
1.0139070705735e-18
2.2919548221003e-18
1.7644481818973e-18
3.6494971385902e-18
2.8596469794507e-18
5.5178895416164e-18
4.4002536185778e-18
7.8099343276826e-18
6.4164077162111e-18
9.8466714195107e-18
8.5864083168223e-18
1.0586394014592e-17
9.9624902602603e-18
1.0620546764046e-17
1.0196714467328e-17
1.0273682617108e-17
1.0013447260889e-17
9.2291354912807e-18
9.3336155698655e-18
7.3297486905932e-18
7.9000043806169e-18
4.9334478798514e-18
5.8266833205762e-18
2.6891756373804e-18
3.5914900020181e-18
1.1498082852621e-18
1.784877622875e-18
3.9047449466991e-19
7.0709938401231e-19
1.142688046779e-19
2.3213855937645e-19
3.2223998866887e-20
6.8792834410178e-20
9.4054895670411e-21
2.0031505730568e-20
2.8941885955303e-21
6.0063772717413e-21
9.3278771361343e-22
1.8793396615007e-21
3.109767480134e-22
6.1152626254756e-22
1.0579636182215e-22
2.0484380863732e-22
3.6220384446237e-23
6.972857632669e-23
1.2315584911685e-23
2.379648018169e-23
4.1140612549466e-24
8.0428142002686e-24
1.340348802962e-24
2.6665245263288e-24
4.2448776350182e-25
8.6203975119231e-25
1.3074534296532e-25
2.7115198655088e-25
3.9290425845767e-26
8.3079370799995e-26
1.1569034865326e-26
2.4874862027115e-26
3.3506635132288e-27
7.3057809833291e-27
9.5711220138308e-28
2.1117032960442e-27
2.7007789724753e-28
6.0208710199461e-28
7.5355888818011e-29
1.6958167637557e-28
2.0804138452722e-29
4.7229192629878e-29
5.6869079019868e-30
1.301627093573e-29
1.5402385151246e-30
3.5523342709765e-30
4.135821069158e-31
9.6069053295184e-31
1.101653901584e-31
2.5761046404424e-31
2.9124253268549e-32
6.8531855321895e-32
7.6450639504636e-33
1.8095935287664e-32
1.9934016198939e-33
4.7447814912186e-33
5.1647680307367e-34
1.2358516273563e-33
1.330119704767e-34
3.1987786731749e-34
3.4059957917667e-35
8.2301777788084e-35
8.6742069229767e-36
2.1055665882388e-35
2.1976421818682e-36
5.3577262134187e-36
5.5402132072514e-37
1.3562867149337e-36
1.3900533962023e-37
3.4164993067347e-37
3.4718301583939e-38
8.5656829220759e-38
8.6335191009e-39
2.1378579597934e-38
2.1379353619766e-39
5.3126512603769e-39
5.2728887274866e-40
1.3147204333078e-39
1.2954344779559e-40
3.2405171679472e-40
3.1707098569464e-41
7.9564400491294e-41
7.7326690248988e-42
1.9462899287422e-41
1.8792668494281e-42
4.7439225486764e-42
4.5518160684828e-43
1.1522922324884e-42
1.09892082674e-43
2.7895442577782e-43
2.6447164930098e-44
6.7312729718566e-44
6.3455019782228e-45
1.6191966786085e-44
1.5179862555311e-45
3.8831411207241e-45
3.620957636902e-46
9.285138551586e-46
8.6133005696919e-47
2.213877836631e-46
2.0433431207377e-47
5.263994756055e-47
4.8347265608375e-48
1.2482697350358e-47
1.1410177228963e-48
2.9523368468865e-48
2.6862172316218e-49
6.9649291792622e-49
6.3075899560233e-50
1.6391463246571e-49
1.4802640429429e-50
3.8461109548524e-50
3.402845845499e-51
9.0566047449761e-51
9.2595645616027e-52
1.9995470688949e-51
7.1525296378787e-52
0
0
0
0
0
0
0
0
0
0
1.1975188600973e-37
5.9253262826181e-38
1.6830875394544e-35
8.2845962430975e-36
9.9517076542198e-34
4.8978122109977e-34
3.5219981067716e-32
1.7393239426144e-32
8.6810769624004e-31
4.3128129973737e-31
1.6153465947857e-29
8.0911081317475e-30
2.3835488200328e-28
1.2063248590759e-28
2.8658543171583e-27
1.469463908626e-27
2.8482193902716e-26
1.4839495555445e-26
2.3739509083842e-25
1.2614521664906e-25
1.650419123519e-24
8.9652937249625e-25
9.8457560737641e-24
5.4533144900358e-24
5.3129992517282e-23
2.9508070635517e-23
2.9768846267745e-22
1.6049713772029e-22
2.188863473271e-21
1.1459646595826e-21
1.5792771750164e-20
8.41783691962e-21
8.6084663022785e-20
4.9328594732803e-20
4.0076076010332e-19
2.3941730613547e-19
1.5884565939497e-18
9.8869715927357e-19
5.0495054886707e-18
3.3244446219468e-18
1.23403006911e-17
8.7384111543962e-18
2.306739650177e-17
1.7691253173421e-17
3.4801929424701e-17
2.8400079534426e-17
4.6951000170129e-17
3.9349140279243e-17
6.2206758741133e-17
5.1830311554988e-17
8.50075176578e-17
6.9206198260911e-17
1.1914747097025e-16
9.5515318616486e-17
1.598644344723e-16
1.3095025068323e-16
1.848527853715e-16
1.6332150390861e-16
1.8768320487055e-16
1.7457712771715e-16
1.847199793528e-16
1.7322805070804e-16
1.695179053596e-16
1.6443479274559e-16
1.3781384634811e-16
1.4232253143288e-16
9.5019458217374e-17
1.0746030756623e-16
5.3143130639278e-17
6.7849108463498e-17
2.3476556237909e-17
3.4672427071971e-17
8.3426985884146e-18
1.4256481735173e-17
2.5858348033909e-18
4.9182954999713e-18
7.7572430400121e-19
1.5452346032755e-18
2.406073121006e-19
4.7838591920193e-19
7.8581749217417e-20
1.5252545306533e-19
2.6867998263703e-20
5.073673416509e-20
9.491274465448e-21
1.7538706973694e-20
3.4127613361653e-21
6.2285847934988e-21
1.2310026507559e-21
2.2409890288334e-21
4.3977846506452e-22
8.0584488165938e-22
1.5400852283867e-22
2.8623167333537e-22
5.2466245225484e-23
9.9485523564955e-23
1.730974138719e-23
3.3611948935406e-23
5.5260333878545e-24
1.1001728812624e-23
1.7115984323682e-24
3.4893510211753e-24
5.1685176455601e-25
1.0757404212454e-24
1.5295177613047e-25
3.2386031022203e-25
4.4537852536651e-26
9.5643218824747e-26
1.2793393370494e-26
2.7802399091911e-26
3.6301197380491e-27
7.9724598069075e-27
1.0183458229241e-27
2.2581895530331e-27
2.8262587984362e-28
6.3238571818213e-28
7.7656701466129e-29
1.7522427602402e-28
2.1139866024562e-29
4.8074711076902e-29
5.7051061718309e-30
1.3069224018292e-29
1.5272530653735e-30
3.5226144476261e-30
4.0575086971846e-31
9.4189366888316e-31
1.0702847949042e-31
2.4996009176533e-31
2.8041539192738e-32
6.5865650853652e-32
7.2999951146317e-33
1.7239942227796e-32
1.8888767148003e-33
4.483886831678e-33
4.8593138286628e-34
1.1591923767847e-33
1.2432421595349e-34
2.979658537836e-34
3.164138870439e-35
7.6173704299281e-35
8.0126371620755e-36
1.937221926627e-35
2.0193385018522e-36
4.9021796293018e-36
5.0657448737206e-37
1.2346021607112e-36
1.2651989051195e-37
3.0951279348015e-37
3.1465229387517e-38
7.7254496933927e-38
7.7934533390729e-39
1.9201580307381e-38
1.9227453265197e-39
4.7532186476496e-39
4.7257215435633e-40
1.1720371419443e-39
1.1572496111774e-40
2.8791138354035e-40
2.8239246500195e-41
7.0468919300165e-41
6.8674857181517e-42
1.7187462396184e-41
1.6645988635045e-42
4.1778443226748e-42
4.0219299310458e-43
1.0122020394055e-42
9.6875941791586e-44
2.444568000553e-43
2.3264573089089e-44
5.8857263918991e-44
5.5707161045864e-45
1.4128689388816e-44
1.3301507620842e-45
3.3817873797361e-45
3.1673786814428e-46
8.0717950798302e-46
7.522136508714e-47
1.9213595176327e-46
1.7818235596097e-47
4.5613412733647e-47
4.2093731314283e-48
1.0801412878006e-47
9.9376169361717e-49
2.549921534381e-48
2.2977565462401e-49
6.0405606043598e-49
6.2928288881862e-50
1.3411559620085e-49
4.8347671342321e-50
0
0
0
0
0
0
0
0
0
0
4.3042289421325e-36
2.0731849504863e-36
4.241776489828e-34
2.0441381641933e-34
2.0004564370639e-32
9.6638759047683e-33
6.0557094858958e-31
2.9374937586208e-31
1.3313868782628e-29
6.4936561688094e-30
2.2771585336473e-28
1.1180696726387e-28
3.1642674336329e-27
1.5660995308442e-27
3.6673926993764e-26
1.8331320735655e-26
3.5985738774047e-25
1.8210902931599e-25
3.0232393034542e-24
1.5544624812571e-24
2.159122197508e-23
1.1319999965041e-23
1.3293770739448e-22
7.1390549057316e-23
6.9293725877846e-22
3.8028576292641e-22
3.3322630634795e-21
1.8142766080518e-21
1.8838069252951e-20
9.7670370088741e-21
1.326514499342e-19
6.374766139845e-20
2.1431766329623e-18
1.0155639705078e-18
2.3607422765848e-17
1.1952646331672e-17
1.3314590056275e-16
7.5677865461138e-17
4.9519592809798e-16
3.1760378506778e-16
1.2220848142135e-15
8.9608078123315e-16
1.7202332440516e-15
1.562184319466e-15
1.754785654425e-15
1.7279010056993e-15
1.596726718781e-15
1.6291262466406e-15
1.2814275267681e-15
1.3388089695364e-15
1.2193537133654e-15
1.154408676716e-15
1.3081667699333e-15
1.1688008667177e-15
1.5786322035524e-15
1.3182603633693e-15
1.9214105034049e-15
1.5976834069491e-15
2.0384209447535e-15
1.8076013326736e-15
2.0407329614235e-15
1.8308013539426e-15
1.9093978248163e-15
1.7663292910728e-15
1.5946635137332e-15
1.5665331187478e-15
1.1202853796715e-15
1.2081087531681e-15
6.3739811337033e-16
7.7656600128322e-16
2.8848737586278e-16
4.0490380838222e-16
1.0698297169412e-16
1.7194068879688e-16
3.5286753834759e-17
6.2395812869154e-17
1.1364890817563e-17
2.0921510492263e-17
3.7828242210312e-18
6.9515833593646e-18
1.3220791538668e-18
2.3791843545245e-18
4.823279996745e-19
8.4796426905484e-19
1.8115409330446e-19
3.1307355859247e-19
6.8964546117647e-20
1.1824837263264e-19
2.6240789178205e-20
4.5052598195994e-20
9.8661009325072e-21
1.7098384495265e-20
3.6317493682386e-21
6.3967766392807e-21
1.2987021708796e-21
2.3383674976937e-21
4.4848056132888e-22
8.2916760952915e-22
1.4914404409896e-22
2.8379767667303e-22
4.7827492907912e-23
9.362708881677e-23
1.4862089054565e-23
2.9844412899343e-23
4.5038896461008e-24
9.2383574904202e-24
1.3386725839674e-24
2.7932126453544e-24
3.9175663837347e-25
8.2887850270801e-25
1.1311994557961e-25
2.4219939952519e-25
3.2264667114081e-26
6.9821614051539e-26
9.097223768619e-27
1.9881504480537e-26
2.5374576683533e-27
5.5966593145016e-27
7.0068363100594e-28
1.5587351900561e-27
1.9168645050928e-28
4.2984129334017e-28
5.1986169658837e-29
1.1744644797686e-28
1.3984759254959e-29
3.181542930118e-29
3.7334091504516e-30
8.549461012717e-30
9.8952919900078e-31
2.2800881463239e-30
2.6049222949456e-31
6.0375836788135e-31
6.813330037143e-32
1.5879687411372e-31
1.7711869169878e-32
4.1499349660838e-32
4.5776165245857e-33
1.0779560119086e-32
1.176531246271e-33
2.7838713375753e-33
3.0079186926485e-34
7.1499518511599e-34
7.6511800468676e-35
1.8267162444164e-34
1.9367970296872e-35
4.6435809219937e-35
4.8800033218353e-36
1.1747392651826e-35
1.2241013484652e-36
2.9581656271715e-36
3.0573937819423e-37
7.4161086714201e-37
7.6048856101975e-38
1.8513007900088e-37
1.884114913823e-38
4.6025131888793e-38
4.6500485904923e-39
1.139713494768e-38
1.1434081445199e-39
2.8115146610547e-39
2.8015193786596e-40
6.9101388358612e-40
6.8404753266981e-41
1.6923466734457e-40
1.6646697616922e-41
4.1304685356417e-41
4.0379902340012e-42
1.0047665670043e-41
9.7643098009688e-43
2.4363109949103e-42
2.3539564648315e-43
5.8890516315951e-43
5.6581604202649e-44
1.4192020803565e-43
1.3561556239645e-44
3.4101100967748e-44
3.2414255415677e-45
8.1706240911761e-45
7.726749775788e-46
1.9522591077826e-45
1.8367099371684e-46
4.6523847530753e-46
4.3626844193044e-47
1.105159685812e-46
1.0147248489694e-47
2.6341686510866e-47
2.7973996038775e-48
5.8819914161503e-48
2.1374416295674e-48
0
0
0
0
0
0
0
0
2.9763907811587e-49
8.6718662427644e-50
7.3709341480414e-35
3.4461317496656e-35
6.2821409590406e-33
2.9496315695312e-33
2.6346716490908e-31
1.2432588449117e-31
7.2413377487678e-30
3.4367461860811e-30
1.4673795490376e-28
7.0086294449252e-29
2.3399777139016e-27
1.1252628809397e-27
3.0642161742538e-26
1.4842298506523e-26
3.3876577958462e-25
1.6539905228729e-25
3.2221740733895e-24
1.5879209579005e-24
2.6667527726358e-23
1.3298799758118e-23
1.9172133444729e-22
9.7086417184407e-23
1.2059348846536e-21
6.2323646661206e-22
6.4686838841942e-21
3.4297569601089e-21
3.0244719168413e-20
1.6360923095925e-20
1.3447716670651e-19
7.1471429325576e-20
7.1288671770321e-19
3.4319837621664e-19
1.0241950205381e-17
4.2374247610542e-18
1.275539942016e-16
5.1281039813223e-17
1.3572257296006e-15
5.6989246384348e-16
2.0457854921457e-14
7.8514444584659e-15
6.066285036038e-14
3.8700264755678e-14
7.2899223108108e-14
6.8833666452231e-14
6.8207463731496e-14
7.0004413083343e-14
4.7458260236465e-14
5.8785776641313e-14
2.7463848268578e-14
3.7823307286084e-14
1.6285857502721e-14
2.1685059683856e-14
1.2620411881732e-14
1.3053251604223e-14
1.2455914565453e-14
1.1352985715656e-14
1.3569200785631e-14
1.1430871961505e-14
1.4713232480629e-14
1.230223874146e-14
1.4828431309038e-14
1.2670979439844e-14
1.424121105922e-14
1.2418406694404e-14
1.221126702831e-14
1.1279384166399e-14
8.7587651607783e-15
8.8987231354202e-15
5.0713788336261e-15
5.8284233600284e-15
2.356221270435e-15
3.1058457190466e-15
9.1550849029635e-16
1.3671447710513e-15
3.2311447553488e-16
5.2486602437133e-16
1.1257205719262e-16
1.8927322314277e-16
4.0580496575752e-17
6.8147524817945e-17
1.5310651326029e-17
2.528960668529e-17
5.9994691635948e-18
9.740679430313e-18
2.4057267538512e-18
3.8647077929781e-18
9.7225448769203e-19
1.5587371034369e-18
3.9114863355272e-19
6.307498766802e-19
1.5521286495939e-19
2.5337618142885e-19
6.0280346819172e-20
1.0018543184074e-19
2.273614311685e-20
3.8685621055872e-20
8.2662297007055e-21
1.4474350115775e-20
2.8819961867303e-21
5.2124871472547e-21
9.6276741449026e-22
1.8002326918258e-21
3.0941709224504e-22
5.967822786183e-22