/*--------------------------------*- C++ -*----------------------------------*\
  =========                 |
  \\      /  F ield         | OpenFOAM: The Open Source CFD Toolbox
   \\    /   O peration     | Website:  https://openfoam.org
    \\  /    A nd           | Version:  7
     \\/     M anipulation  |
\*---------------------------------------------------------------------------*/
FoamFile
{
    version     2.0;
    format      ascii;
    class       volScalarField;
    location    "1.6";
    object      alpha.water;
}
// * * * * * * * * * * * * * * * * * * * * * * * * * * * * * * * * * * * * * //

dimensions      [0 0 0 0 0 0 0];

internalField   nonuniform List<scalar> 
6000
(
0
0
0
0
0
0
0
0
0
0
0
0
0
0
0
0
0
0
0
0
0
0
0
0
0
0
0
0
0
0
0
0
0
0
0
0
0
0
0
0
0
0
0
0
0
0
0
0
0
0
0
0
0
0
0
0
0
0
0
0
0
0
0
0
0
0
0
0
0
0
0
0
0
0
0
0
0
0
0
0
0
0
0
0
0
0
0
0
0
0
0
0
0
0
0
0
0
0
0
0
0
0
0
0
0
0
0
0
0
0
0
0
0
0
0
0
0
0
0
3.1856725844656e-198
1.6551863049444e-198
9.7919579720951e-199
1.7018710030713e-203
4.3357944996233e-203
1.571363128088e-200
7.1334406639658e-201
2.7659851339885e-203
2.566863762597e-204
3.1082730273569e-203
2.4756559439533e-203
9.721628426285e-204
1.9971641973522e-204
8.3572263531691e-205
3.1221771161596e-205
9.8087299046604e-206
2.9457686457902e-206
7.1392603767279e-207
1.9015437645345e-207
5.8789819008353e-208
1.5757958809547e-208
3.5101029374085e-209
1.018390745655e-209
2.2021388270504e-210
5.2938868657114e-211
1.2588212478289e-211
3.4550217502219e-212
8.3254911241613e-213
1.7065566974255e-213
4.5328330076871e-214
9.1405375518171e-215
2.3855146472293e-215
5.4873960072368e-216
1.0834513468287e-216
2.7581277912657e-217
5.3779564976436e-218
1.1739406232091e-218
2.5836538821482e-219
5.522539958595e-220
1.1903378318056e-220
2.5520440446953e-221
5.4544046318344e-222
1.1614430756955e-222
2.464635599751e-223
5.2126920306686e-224
1.0989717344436e-224
2.3098454137032e-225
4.8406610190804e-226
1.0115842844165e-226
2.108251960639e-227
4.382386728567e-228
9.086755988717e-229
1.8795632386442e-229
3.878758343581e-230
7.9864175566246e-231
1.6408495621572e-231
3.3641488726234e-232
6.8833831914507e-233
1.4056528943665e-233
2.8650442269972e-234
5.8289191787969e-235
1.1837863528589e-235
2.3999996592252e-236
4.8576302701099e-237
9.8160101175419e-238
1.9804490532769e-238
3.9896100262231e-239
8.0251731352427e-240
1.6119584832375e-240
3.2333021372129e-241
6.4766214722027e-242
1.2956169991202e-242
2.5884877501539e-243
5.1650173911094e-244
1.0293614986809e-244
2.0490295320605e-245
4.0740453924433e-246
8.0912112801936e-247
1.6051789765819e-247
3.181027235767e-248
7.8492459287138e-249
0
0
0
0
0
0
0
0
0
0
0
0
0
0
0
0
0
0
0
1.3146103638053e-133
1.6744806065749e-132
6.2554803725011e-133
1.8506768152777e-133
1.2116496050212e-133
7.958738289658e-134
1.0230912663907e-137
7.0235085980369e-135
0
1.1609946288908e-139
8.8409831231155e-137
4.9471260845159e-137
5.6542198872255e-138
0
4.0006184711286e-140
9.2177301509524e-140
4.5352882847347e-140
3.2353749314459e-141
0
6.4957886969796e-143
5.6986042255017e-143
5.2397007205194e-147
4.5252574921588e-144
2.8634773588998e-148
4.3413256825881e-163
2.9791597277389e-147
1.7546668076262e-147
1.7247316528893e-147
5.952830490174e-149
2.2704058280769e-149
6.8916049092469e-150
7.4311241173547e-151
7.9720158593428e-151
2.7548771682781e-152
8.5215279330432e-153
7.9057562450556e-153
0
5.2087800543209e-154
0
2.7594592510455e-155
0
1.4088259555612e-156
3.8520099725341e-157
0
1.874533799789e-158
0
0
1.6273402834039e-160
0
7.637377597211e-162
0
3.5286587597442e-163
8.8395583003199e-164
2.185566624403e-164
5.3390943161188e-165
-4.8198397302063e-182
0
4.2640305109204e-167
1.0196054787235e-167
0
4.3907171260262e-169
-1.1750782163644e-185
1.8740438263276e-170
0
7.9327331275647e-172
1.8325676835376e-172
4.2028035973188e-173
9.5730691573883e-174
0
3.9391971457437e-175
8.8612100584494e-176
0
3.6035236499639e-177
0
1.457495218601e-178
3.2256560869188e-179
7.1041312248561e-180
1.5573664931913e-180
2.140438817391e-197
6.180052347558e-182
1.7137597251807e-182
0
0
0
0
0
0
0
0
0
0
0
0
0
0
0
0
0
-5.2662657114051e-75
-2.202230471567e-74
-2.9769207104506e-74
-1.7404986978867e-74
-5.3449801541499e-75
-1.3682576765878e-75
4.8831232001441e-57
3.518568656681e-56
1.8161019500929e-55
8.8142029565167e-55
3.6426760586999e-54
1.3504025665338e-53
1.1654798827294e-51
6.4395769239116e-50
3.147268946126e-49
1.3607822997315e-48
1.1276092898564e-47
4.1202231647875e-47
1.8882112281638e-46
5.6006087911755e-46
1.2387620115081e-45
2.64895392302e-45
3.337473268825e-45
4.3701787522006e-45
5.0379979466531e-45
6.9793494598965e-45
1.7398540004006e-44
1.7938848927362e-44
2.0533507065903e-44
2.2325676299715e-44
2.3259845666403e-44
1.6803718362323e-44
8.5945461645239e-45
2.1726230752462e-45
3.3070222919913e-46
2.9290325382969e-47
5.8416733631518e-48
5.1558480461472e-49
8.8429521481233e-50
3.4299031679776e-50
3.4825085455509e-51
1.2598981302075e-51
1.3142248375805e-52
2.2995839164141e-53
8.901204727607e-54
9.260669310569e-55
3.1534591312947e-55
3.483335124582e-56
6.1491438200819e-57
2.3665387379452e-57
2.4845533272268e-58
8.4043345488898e-59
9.3616926705415e-60
1.6440016656497e-60
7.7173403767043e-61
8.8422144483844e-62
2.4127922561184e-62
2.6052164069947e-63
4.6029079815339e-64
1.6310409578662e-64
1.8523505015045e-65
2.2174948306271e-66
6.0009602254462e-67
1.1704138241146e-67
2.1844993032752e-68
9.8412055818798e-69
2.6959524324481e-69
3.1073217981981e-70
7.1284659470193e-71
7.3622699280938e-72
1.2825080273418e-72
5.6927188437209e-73
1.3536321724195e-73
1.1355338412844e-74
1.9018428911025e-75
8.273281209156e-76
2.1919024890076e-76
4.6032276215692e-77
9.0279878216768e-78
7.1300076674199e-79
2.7830042083284e-79
6.29553155821e-80
2.4872801882303e-80
0
0
0
0
0
0
0
0
0
8.8150317820109e-45
2.241094196358e-43
7.0348499587873e-43
9.078187231584e-42
2.6215257448931e-42
0
7.9654595556624e-60
0
2.4032656572878e-40
-5.5244757335108e-52
0
0
0
3.4066404216456e-42
5.526287789451e-57
2.6031121827002e-56
1.3833016200852e-55
6.7276321191247e-55
2.8341469767742e-54
1.0955207350958e-53
8.1369750989481e-52
6.2749010503803e-44
3.4951633170621e-49
1.0683140896431e-48
2.0467447567814e-43
4.5571052108863e-47
5.3419249640575e-40
4.4030478643466e-44
1.3419326900996e-45
4.1660702192883e-43
3.555605585091e-45
4.3571248909628e-45
7.0027734358412e-44
9.6586781611085e-45
1.3853358061808e-44
9.5370451752799e-44
3.8641395580673e-44
2.8153325928757e-44
2.3390955716285e-44
1.8399784548675e-43
8.0568983264553e-45
1.8972203567797e-45
1.1683712885187e-45
9.6166747869627e-47
6.4491674264476e-46
3.3820469059337e-48
6.3526457953967e-49
7.5101109403211e-48
2.4377428673318e-50
5.5693210204646e-49
9.2662358283433e-52
1.7425910091833e-52
8.0928268131298e-51
6.663380087565e-54
6.1706590407223e-52
2.511467885757e-55
4.7262713032769e-56
8.5235491486131e-54
1.8036565065105e-57
6.0794524210494e-55
6.7879707943409e-59
1.7393176743123e-59
2.4449178773538e-56
1.8653120160016e-60
1.2865019866496e-57
1.8911605304755e-62
3.5576987977029e-63
5.1671315699075e-59
3.4410291069866e-63
2.4707172260351e-65
1.1389111227921e-64
9.0161166429152e-67
1.0926457847937e-63
8.9685189989451e-63
1.9499594751865e-63
6.5994248798948e-65
1.1161522686446e-63
6.755121805366e-68
1.0000940397717e-71
1.1462664887924e-66
7.5529636577933e-67
7.9300931488046e-74
6.7692689852999e-69
5.9110435150013e-68
1.4017438301866e-68
6.2295096034354e-70
7.0519826074768e-69
4.2495198491967e-73
1.1251512195536e-69
3.2651767154016e-71
1.1902357859921e-70
0
0
0
0
0
0
0
2.8020589546732e-35
1.9742671400722e-33
6.7626712309344e-32
1.4947874901849e-30
2.407437037484e-29
2.9753609472511e-28
2.8653824270058e-27
2.2663574748343e-26
1.665254485628e-25
1.2481498859145e-24
9.2891492782961e-24
6.4023323179618e-23
3.9122793530957e-22
2.0760028051654e-21
9.4960302576734e-21
3.7450874756286e-20
1.2780898744747e-19
3.7944627857738e-19
9.8686639315416e-19
2.2693554852168e-18
4.6692896992487e-18
8.7156271561461e-18
1.495536796767e-17
2.3791288869216e-17
3.497885873272e-17
4.6243063929965e-17
5.2426510995356e-17
5.2775538921144e-17
5.1484480326344e-17
4.7482949002953e-17
3.9575236619183e-17
2.8512208873774e-17
1.6940338987278e-17
7.9171591681449e-18
2.8328832613497e-18
8.0406848136889e-19
2.0409498221422e-19
5.3135763398109e-20
1.5036208596066e-20
4.5646651532135e-21
1.4466505505979e-21
4.6949142493338e-22
1.5387968703464e-22
5.0303300358211e-23
1.6216730839343e-23
5.1121411825288e-24
1.5691549740537e-24
4.6904054594796e-25
1.3699155494064e-25
3.9274511711473e-26
1.1096979977094e-26
3.0980735317393e-27
8.5569791583809e-28
2.3396018396022e-28
6.3349704596324e-29
1.6996356913963e-29
4.521039650446e-30
1.1930299380332e-30
3.1248196518111e-31
8.1274806436483e-32
2.0999815734373e-32
5.3920925702833e-33
1.376329280061e-33
3.4933337271944e-34
8.8192071215557e-35
2.2151342575843e-35
5.5367158553122e-36
1.3774601443716e-36
3.4116668075569e-37
8.4138540448083e-38
2.0665154428345e-38
5.0555357484744e-39
1.2320989048497e-39
2.9918147693383e-40
7.2392189559624e-41
1.7457028001729e-41
4.1958606000433e-42
1.0052905803446e-42
2.4011926748094e-43
5.7183377659389e-44
1.3578765697806e-44
3.2154123917418e-45
7.593381487796e-46
1.7885058139364e-46
4.2017950470303e-47
9.846908079024e-48
2.3020554551943e-48
5.3691357311077e-49
1.2495694112191e-49
2.8974432588387e-50
6.8050620214052e-51
1.3697720076755e-51
5.9021000026366e-52
0
0
0
0
0
0
2.5643836595054e-35
2.6360669792711e-33
1.2225802682858e-31
3.5403152946257e-30
7.2751078763213e-29
1.141895938177e-27
1.4190931528084e-26
1.4178079208146e-25
1.1660070221168e-24
8.0489210434272e-24
4.9639656507894e-23
3.1802581928935e-22
2.1462032029316e-21
1.3451021071595e-20
7.5284284023842e-20
3.7299222980215e-19
1.5977919930636e-18
5.8105176430453e-18
1.7816187753902e-17
4.6172507523769e-17
1.0235573117776e-16
1.9860938223001e-16
3.4807828688047e-16
5.6799111252499e-16
8.7857714204868e-16
1.2848362765864e-15
1.7223229805452e-15
1.9999026810508e-15
2.0333786140325e-15
1.9934937868744e-15
1.856025155125e-15
1.5711510973727e-15
1.1548740455154e-15
7.0521843408931e-16
3.4256869722959e-16
1.2939048347037e-16
3.9310786001846e-17
1.0703229580094e-17
2.9588246024472e-18
8.8099514476477e-19
2.8099606364896e-19
9.375505392978e-20
3.2065046234038e-20
1.1061560051048e-20
3.7958705003831e-21
1.2806154750802e-21
4.210803834142e-22
1.3429494636898e-22
4.151719935483e-23
1.2478437729073e-23
3.6647150821344e-24
1.0570603362228e-24
3.0060976737602e-25
8.4468696869665e-26
2.3475558253293e-26
6.4564681847561e-27
1.7581400669968e-27
4.743022056929e-28
1.2684765109594e-28
3.3651142382358e-29
8.8600691556511e-30
2.3162822206261e-30
6.0150066814526e-31
1.5521276030138e-31
3.9811497886167e-32
1.0153381240963e-32
2.5754571704537e-33
6.4990508263106e-34
1.6319213445845e-34
4.0784596620387e-35
1.014677088383e-35
2.5134784282278e-36
6.2003101098465e-37
1.523396218273e-37
3.7285437760561e-38
9.0918879102357e-39
2.2090986221774e-39
5.3490496739214e-40
1.2908915763103e-40
3.1052939219709e-41
7.4466508026772e-42
1.7803592216377e-42
4.2440786211529e-43
1.0088508812254e-43
2.3915253490302e-44
5.6540847575787e-45
1.3332821197728e-45
3.1360747510857e-46
7.3583262154161e-47
1.7226427906689e-47
4.0176962627623e-48
9.4887066487249e-49
1.9232659777253e-49
8.3135005810035e-50
0
0
0
0
0
1.1321431134695e-35
1.6023784926097e-33
9.5617802366869e-32
3.4197326238241e-30
8.5261422180307e-29
1.6061432593885e-27
2.4016883098944e-26
2.9306369230035e-25
2.9606178863099e-24
2.5149900328372e-23
1.7853586084317e-22
1.0854663250601e-21
5.9025131987933e-21
3.2453818570243e-20
2.3385868092394e-19
1.7175224736886e-18
9.6524871168527e-18
4.6178595825113e-17
1.8994448795099e-16
6.3851100461611e-16
1.6840461730508e-15
3.4352783671355e-15
5.5706967252184e-15
7.7931294363042e-15
1.0384871891038e-14
1.405610762442e-14
1.9628407402457e-14
2.7167619675837e-14
3.4022635173883e-14
3.6172664155068e-14
3.5753008867653e-14
3.3799858667587e-14
2.9297004379736e-14
2.2037818450307e-14
1.3797597619474e-14
6.9028595633135e-15
2.7168917928677e-15
8.7500191910187e-16
2.5570973079646e-16
7.5802989927885e-17
2.4017777529345e-17
8.1096564892959e-18
2.8583180226344e-18
1.0308566663592e-18
3.7417413034986e-19
1.3482952184888e-19
4.7696562325635e-20
1.6420858121397e-20
5.4691505942172e-21
1.7578931791424e-21
5.4612705160477e-22
1.6480072511201e-22
4.8611185393475e-23
1.4094093881595e-23
4.0310836878844e-24
1.1393343041396e-24
3.18452211352e-25
8.8065642286256e-26
2.4109171038039e-26
6.5382832832812e-27
1.7577081800405e-27
4.6870214238323e-28
1.240340858585e-28
3.2589248685174e-29
8.5049164588982e-30
2.2053901199082e-30
5.6841356892e-31
1.4565955075242e-31
3.712186832056e-32
9.4112633058674e-33
2.3740803959622e-33
5.9602811286249e-34
1.489530581085e-34
3.7061654433579e-35
9.1826628763862e-36
2.2659569296409e-36
5.569804718286e-37
1.3639409460902e-37
3.3279487054398e-38
8.091664087368e-39
1.9607885347912e-39
4.7359157581512e-40
1.1402586861208e-40
2.7369852268514e-41
6.5501658890028e-42
1.5630826393394e-42
3.7196187008025e-43
8.827483204659e-44
2.0894476025487e-44
4.9329619066358e-45
1.1618813660816e-45
2.7261251820238e-46
6.475417724252e-47
1.3217242540166e-47
5.7340186387641e-48
0
0
0
0
0
4.0703133093874e-34
4.0485202635615e-32
1.9288553061164e-30
5.9032159398599e-29
1.3129480647399e-27
2.2729305282884e-26
3.1987804354224e-25
3.7583266943515e-24
3.7426624909487e-23
3.1982343884295e-22
2.3277482090272e-21
1.4659431011219e-20
7.8088060614603e-20
3.7458171798203e-19
2.0646598530503e-18
1.3814978993833e-17
2.1660206835626e-16
2.5000380134455e-15
1.5126384652161e-14
6.0845112758531e-14
1.7189029823648e-13
3.0504960788839e-13
3.3728996253214e-13
3.1873880537347e-13
2.6431026411751e-13
2.3150299924962e-13
2.4208764317732e-13
2.8011092037165e-13
3.4345991482296e-13
3.9132070493389e-13
3.9352058610496e-13
3.7902054030256e-13
3.3571641305337e-13
2.5821929120634e-13
1.6465138552074e-13
8.4099678388083e-14
3.4266902994599e-14
1.1695440631527e-14
3.6906171629094e-15
1.1838417901847e-15
4.0271501560645e-16
1.449547988017e-16
5.4213449733996e-17
2.0670245419249e-17
7.9068957362557e-18
2.9968202175935e-18
1.1143594350038e-18
4.0314170105003e-19
1.4088470359709e-19
4.7337917862079e-20
1.5283638511755e-20
4.7602519993611e-21
1.4403383050033e-21
4.2650838703897e-22
1.2428042979614e-22
3.5743392803423e-23
1.0158892206936e-23
2.8548499402283e-24
7.936300271848e-25
2.1838830964325e-25
5.9529399299425e-26
1.608512462771e-26
4.3109106903526e-27
1.1465346151111e-27
3.0274139142777e-28
7.9395473711281e-29
2.0687900960936e-29
5.3576940197936e-30
1.3794692161523e-30
3.5321531600185e-31
8.9964550796021e-32
2.2798695040474e-32
5.7497622002425e-33
1.4433740000955e-33
3.6072695185584e-34
8.9768731048245e-35
2.2247918846731e-35
5.4920941928285e-36
1.3506199445583e-36
3.3092796181263e-37
8.0796762072469e-38
1.965923070519e-38
4.767603324961e-39
1.1525002063224e-39
2.7773652623264e-40
6.6729452996804e-41
1.5985788903437e-41
3.818737909006e-42
9.0972692028337e-43
2.1614005065748e-43
5.1225888238183e-44
1.2093035429034e-44
2.8894408464998e-45
5.9393061075165e-46
2.5870403946406e-46
0
0
0
0
2.8477377308051e-47
6.9682307932024e-33
6.0030141177697e-31
2.5459965685437e-29
7.0798576695094e-28
1.4521438958957e-26
2.3447194645353e-25
3.1099976473293e-24
3.4841577886066e-23
3.36033640263e-22
2.8242395093202e-21
2.0650575551838e-20
1.3259607100257e-19
7.2859104419969e-19
3.4715377139886e-18
1.5381434140163e-17
7.6544577632795e-17
1.0350798896468e-15
1.304125860311e-14
1.375067958443e-13
2.2734205806968e-12
8.7206054993619e-12
1.4209358188998e-11
1.3564567695686e-11
1.0544639509543e-11
6.7950029772515e-12
3.9509735169499e-12
2.4949183688698e-12
2.3645523334961e-12
2.5201176483991e-12
2.7889997494958e-12
2.8769419678734e-12
2.8124544573163e-12
2.5477355571876e-12
2.00714944481e-12
1.3042828901729e-12
6.8103647802854e-13
2.880501656525e-13
1.0459340813834e-13
3.5807534977138e-14
1.2513829656093e-14
4.6097337821573e-15
1.7827542390322e-15
7.1151648019566e-16
2.8786334913413e-16
1.1637534114995e-16
4.6527418017798e-17
1.8249499621196e-17
6.9683144360526e-18
2.5693175523278e-18
9.0837702688875e-19
3.0689426599631e-19
9.9273391762869e-20
3.0956373178019e-20
9.3887840327602e-21
2.7912581457614e-21
8.1746518661478e-22
2.3637822030636e-22
6.7541196554249e-23
1.907834265064e-23
5.3304319042227e-24
1.4741591765791e-24
4.0384366925449e-25
1.0966462766356e-25
2.9536461003306e-26
7.8941638965618e-27
2.0945974752382e-27
5.5196815917653e-28
1.4451191600932e-28
3.760219648555e-29
9.7268946396013e-30
2.5021147375405e-30
6.402109962184e-31
1.6297623189012e-31
4.1286245108064e-32
1.041008813045e-32
2.6130826536156e-33
6.5309731822183e-34
1.6255485936536e-34
4.0298238646085e-35
9.9517357785548e-36
2.4484831007539e-36
6.0025566339438e-37
1.466454221823e-37
3.5706158752267e-38
8.6657614502351e-39
2.0965412849575e-39
5.0567911886538e-40
1.2160772468646e-40
2.9160847469831e-41
6.9730319616683e-42
1.6631212826835e-42
3.9507271502315e-43
9.4964662195885e-44
1.9657546183062e-44
8.6001009778103e-45
0
0
0
0
-4.7021780762049e-59
7.5345651120154e-32
6.0362094845661e-30
2.3988708029541e-28
6.2900033661345e-27
1.2223956193534e-25
1.8757825402809e-24
2.3691531384898e-23
2.5338696889598e-22
2.3456347531965e-21
1.9092336526015e-20
1.3742509463565e-19
8.7974785488822e-19
4.9222208699066e-18
2.4348024900771e-17
1.0404753570493e-16
4.0234736131074e-16
2.7735889326689e-15
2.8435017432037e-14
3.461771903783e-13
3.3048373021248e-12
2.9763797065969e-11
1.374621730385e-10
3.0607420485263e-10
2.9803168240757e-10
2.196624482427e-10
1.2396363767956e-10
5.1333622516915e-11
2.153823216526e-11
1.3631711534399e-11
1.3572538438301e-11
1.4031681288083e-11
1.4027315479595e-11
1.3069743648853e-11
1.0554295054608e-11
7.0007704036922e-12
3.7429830707149e-12
1.6522353559852e-12
6.4546478685772e-13
2.4315760000452e-13
9.3815797466891e-14
3.7833155051654e-14
1.5852614529864e-14
6.7939385542609e-15
2.9311705017963e-15
1.2580385988652e-15
5.3298362770347e-16
2.215764486839e-16
8.977736957921e-17
3.5145708919261e-17
1.3172613379733e-17
4.6958746499237e-18
1.5904843073514e-18
5.1451950234109e-19
1.6052469212406e-19
4.8800182965089e-20
1.4567244601843e-20
4.2874810156286e-21
1.246167219383e-21
3.5786357963178e-22
1.0157943633097e-22
2.8517772811077e-23
7.9247007279602e-24
2.181422043872e-24
5.9522043672291e-25
1.610810433734e-25
4.3256594774185e-26
1.1531626970208e-26
3.0530271101937e-27
8.0302514624365e-28
2.099081023933e-28
5.4545867127722e-29
1.4094422891854e-29
3.6223984604457e-30
9.2621296967403e-31
2.3566003420314e-31
5.9677338206864e-32
1.5043999220292e-32
3.775930139755e-33
9.4376281485219e-34
2.3493460651641e-34
5.8255803002757e-35
1.4391250842976e-35
3.5422620428156e-36
8.6883658067805e-37
2.1238329113138e-37
5.1745705462008e-38
1.2567369952185e-38
3.0427947308188e-39
7.3451324726695e-40
1.7678980917359e-40
4.2437031369448e-41
1.0144742032576e-41
2.4534212652817e-42
5.114187268188e-43
2.2479998411621e-43
0
0
0
0
-6.0771633572864e-65
5.8215675841394e-31
4.4786342066145e-29
1.7108353684841e-27
4.3180412928553e-26
8.0859454851156e-25
1.1964566648253e-23
1.4570052148037e-22
1.501728772541e-21
1.3385145077702e-20
1.0501786494284e-19
7.3347032214576e-19
4.6014518383763e-18
2.5687604911718e-17
1.2879074813415e-16
5.7069487278709e-16
2.1328749597906e-15
8.4327410858226e-15
4.797041110307e-14
4.0092065828621e-13
3.079066148999e-12
2.5421162859788e-11
1.6104513975933e-10
1.7086133407668e-09
6.2745464645603e-09
6.1726509620762e-09
3.8104418098491e-09
1.3955864691541e-09
4.4288533616931e-10
1.792222417131e-10
9.599667993883e-11
6.7792794117007e-11
5.7079553103739e-11
4.7549446982004e-11
3.5670355428907e-11
2.300386921585e-11
1.2643535004408e-11
6.0718169984237e-12
2.6827980901269e-12
1.1549066930313e-12
5.0413929235461e-13
2.2635628540478e-13
1.0402153623766e-13
4.8302228943106e-14
2.2385893998784e-14
1.0269128770601e-14
4.6405495820466e-15
2.0578441890759e-15
8.9043648637047e-16
3.7269953657389e-16
1.4929336279763e-16
5.6682969284928e-17
2.0297480288853e-17
6.8706867229087e-18
2.2187226851724e-18
6.9209552586993e-19
2.108752068065e-19
6.3202856407933e-20
1.8691235233353e-20
5.458954726882e-21
1.5749815493105e-21
4.4909412313526e-22
1.2665188465666e-22
3.5355362386931e-23
9.7768704422535e-24
2.6799587344685e-24
7.2858328761264e-25
1.9654481536527e-25
5.2633516220922e-26
1.3997547742413e-26
3.6981621229306e-27
9.7097174837194e-28
2.5342189653512e-28
6.5768539869986e-29
1.6976144060805e-29
4.3592187298481e-30
1.1138368493401e-30
2.832472558814e-31
7.1700625433305e-32
1.8070482465122e-32
4.535003938485e-33
1.1334797709592e-33
2.8218962804867e-34
6.9987218951381e-35
1.7294287104775e-35
4.2583907096533e-36
1.0449536681044e-36
2.555667535827e-37
6.2303441881274e-38
1.5141294014025e-38
3.6685241977241e-39
8.8633574478311e-40
2.1324026081037e-40
5.1889764336963e-41
1.0892248393733e-41
4.8117892639697e-42
0
0
0
0
0
3.4490384068547e-30
2.5906787243596e-28
9.6501144823764e-27
2.3729808581827e-25
4.328503358727e-24
6.2370108569595e-23
7.3888097376892e-22
7.3960034757885e-21
6.3855789862374e-20
4.8411823038885e-19
3.2684155356393e-18
1.9872969894389e-17
1.0890061552067e-16
5.4226747296029e-16
2.4293378308636e-15
9.6558565610605e-15
3.3328975877945e-14
1.1203600579855e-13
5.021262852241e-13
2.4395095852745e-12
1.4838847929014e-11
1.135549000811e-10
9.2912774337093e-10
8.746134996116e-09
5.4883179374548e-08
5.31592768226e-08
3.1429281210441e-08
1.4702183531966e-08
6.3118522573345e-09
2.7668677985979e-09
1.1398323241828e-09
4.5018391452475e-10
1.9743874046652e-10
9.9022103867848e-11
5.1844160356545e-11
2.7104985611865e-11
1.408251336683e-11
7.2264860631457e-12
3.6965142988526e-12
1.8969025005889e-12
9.7725202453238e-13
5.0288861758547e-13
2.5673065790205e-13
1.2932129275639e-13
6.4074384793025e-14
3.1178090691289e-14
1.4873343926329e-14
6.9270331749318e-15
3.1243467795241e-15
1.3490897898146e-15
5.5083858233404e-16
2.1073777458815e-16
7.5397962614786e-17
2.5405117349368e-17
8.1727046534162e-18
2.5477457163354e-18
7.7819993686845e-19
2.3422003840854e-19
6.9588401392907e-20
2.0415175403789e-20
5.915274271238e-21
1.6938065867786e-21
4.7971478521339e-22
1.3449337046799e-22
3.735417088441e-23
1.0284134327347e-23
2.8081331439617e-24
7.6084030637855e-25
2.0463523235226e-25
5.4657188970253e-26
1.4502682894043e-26
3.8240584074247e-27
1.0023166944216e-27
2.6122125411021e-28
6.7708753552288e-29
1.7458840828347e-29
4.4793447483597e-30
1.143746362507e-30
2.9069854157785e-31
7.3558056522829e-32
1.8533754901921e-32
4.6506048336415e-33
1.1623350855918e-33
2.8939329748596e-34
7.1785499869079e-35
1.7743076640423e-35
4.3703376339359e-36
1.0728576809024e-36
2.6251593165966e-37
6.4031278934927e-38
1.5572354872298e-38
3.7708112157697e-39
9.2334840537556e-40
1.951796673412e-40
8.6678048314767e-41
0
0
0
0
-4.74778387288e-67
1.6359065402626e-29
1.2118480755653e-27
4.4443562347377e-26
1.074301222629e-24
1.9240683996341e-23
2.7193059864122e-22
3.1546606412422e-21
3.0869964338716e-20
2.5991995714031e-19
1.9133601046771e-18
1.2491482897917e-17
7.3192924583784e-17
3.887294685482e-16
1.8830830237802e-15
8.3818368599929e-15
3.3880932095565e-14
1.2228834027931e-13
3.8468411738777e-13
1.0608492930983e-12
3.1973009135904e-12
9.4313545953768e-12
4.9826043874173e-11
2.524979669873e-10
3.5744107256904e-09
2.6268809919999e-08
1.9499909801301e-07
4.075419855335e-07
3.5191687119251e-07
2.3509798285267e-07
1.1471040719551e-07
3.4314553691217e-08
7.9776956365411e-09
2.1915317276822e-09
7.8030654552278e-10
2.5631487475797e-10
6.8524701596378e-11
2.4211124663743e-11
1.3337335898547e-11
8.159834850895e-12
5.0035842207222e-12
3.0140825048039e-12
1.7699067485844e-12
1.011856568259e-12
5.636345180937e-13
3.0627193968784e-13
1.6258897221254e-13
8.4380433333297e-14
4.2717322589542e-14
2.0950287147224e-14
9.8383321496962e-15
4.3606894045585e-15
1.8007336674359e-15
6.8819591157577e-16
2.4425194544094e-16
8.1592150782649e-17
2.6124574236204e-17
8.1456458581557e-18
2.4966130634999e-18
7.5484800139978e-19
2.2527256853334e-19
6.6360738905544e-20
1.9304041522392e-20
5.5496538659023e-21
1.5781892526029e-21
4.4431256238572e-22
1.2392489653895e-22
3.4263044088135e-23
9.395399544652e-24
2.5563960120232e-24
6.9047475764221e-25
1.8520012057638e-25
4.9347017162157e-26
1.3066105518053e-26
3.4389433889229e-27
8.9994384517534e-28
2.3422123692699e-28
6.0639912668707e-29
1.5620901576592e-29
4.0045728119879e-30
1.0218575717418e-30
2.5958813146876e-31
6.5661530525544e-32
1.6540015249122e-32
4.1497560803939e-33
1.03712320216e-33
2.5823507515493e-34
6.4066367031057e-35
1.5838896307968e-35
3.9025423295949e-36
9.5837885522958e-37
2.3463786457861e-37
5.7191305302653e-38
1.4093615665834e-38
3.0001101807462e-39
1.3397141624899e-39
0
0
0
5.6001645621988e-59
1.611384518757e-43
6.3731684154745e-29
4.6914260276217e-27
1.7065418660392e-25
4.0849885218594e-24
7.2308334276308e-23
1.0083708464493e-21
1.152608729301e-20
1.109681301747e-19
9.1721315059044e-19
6.6052467976607e-18
4.1991065280713e-17
2.3791822848767e-16
1.2156783374424e-15
5.644400950431e-15
2.425736194965e-14
9.6070347973814e-14
3.5386255552853e-13
1.1551259511479e-12
3.4621818951377e-12
8.2304008454985e-12
1.6622336933361e-11
3.2927810117438e-11
6.7087154884103e-11
6.7274561595398e-10
9.4072261124495e-09
1.6259689586798e-07
2.5478797543173e-06
6.4225049255334e-06
5.1192486759445e-06
2.1561619005226e-06
7.1691939406954e-07
2.0831364317565e-07
5.897637347528e-08
1.9154181744172e-08
5.6441469793482e-09
1.0287179926216e-09
9.0319920705058e-11
1.7671653042838e-11
1.2491428401066e-11
9.8017596314391e-12
6.9400114352871e-12
4.6099413631141e-12
2.9703389432756e-12
1.8551619899566e-12
1.1226572791135e-12
6.5986934182621e-13
3.775743922458e-13
2.1021507113981e-13
1.132398384457e-13
5.8352729219542e-14
2.8319537944993e-14
1.2738455468264e-14
5.2518606880577e-15
1.9828328786149e-15
6.9357299837151e-16
2.2940312178003e-16
7.3249857740211e-17
2.2898060915726e-17
7.0511094767714e-18
2.1419553414316e-18
6.4190405949107e-19
1.8982077997537e-19
5.542989699633e-20
1.5998426987534e-20
4.5681165224904e-21
1.29140826951e-21
3.616958945135e-22
1.0042120902368e-22
2.7652204841352e-23
7.5553705179385e-24
2.0492007552686e-24
5.5192612360242e-25
1.4767118833356e-25
3.926151152944e-26
1.0375800302902e-26
2.7263185492529e-27
7.1242686371255e-28
1.8518811608075e-28
4.789481170605e-29
1.2326886356754e-29
3.1578330357246e-30
8.0532624129302e-31
2.0449032672688e-31
5.1708138080776e-32
1.3022466817403e-32
3.2668953688339e-33
8.1647113617251e-34
2.0331199055802e-34
5.0448976744938e-35
1.2475287424356e-35
3.0751326435741e-36
7.5456885589195e-37
1.8715663112027e-37
4.012274010474e-38
1.8021247487132e-38
0
0
0
5.802866324888e-57
2.9126446056988e-42
2.0675094226447e-28
1.5219232279051e-26
5.5240008573251e-25
1.3173863068934e-23
2.3180600259819e-22
3.207234645021e-21
3.633114150787e-20
3.4610538231094e-19
2.8258759873455e-18
2.0063640469291e-17
1.2531795317217e-16
6.9424420996751e-16
3.4438027697506e-15
1.5377750620428e-14
6.2705399976378e-14
2.3603637582541e-13
8.3072829078209e-13
2.7322737202798e-12
8.4615206242977e-12
2.5094946847336e-11
6.255909028249e-11
7.9755834904337e-11
9.3886327532647e-11
1.5119609055192e-10
3.4952049545974e-09
9.3427538042122e-08
1.1545625857439e-06
1.1517300434659e-05
4.2513592728906e-05
3.197919072505e-05
1.5303088729502e-05
5.7421685252682e-06
1.6848639044587e-06
4.937515885913e-07
1.5466375855476e-07
3.7416543725304e-08
4.1606546123674e-09
1.6592334496145e-10
3.0327275327876e-11
1.379075667737e-11
1.0965808917564e-11
9.313961147654e-12
6.9359345843839e-12
4.7935226813663e-12
3.2209416961597e-12
2.1095432340975e-12
1.3441701946032e-12
8.3173170371097e-13
4.9683635843557e-13
2.8326906860626e-13
1.5164798218862e-13
7.4848840987344e-14
3.3557539749108e-14
1.3597990627131e-14
5.0256604116416e-15
1.730431703406e-15
5.6890404927907e-16
1.8195779924242e-16
5.7163151675098e-17
1.7693797926864e-17
5.3989284449541e-18
1.6243657433422e-18
4.8220201754377e-19
1.4136534445398e-19
4.0967754235405e-20
1.1746323367079e-20
3.3346032187435e-21
9.3787641008559e-22
2.6148669309368e-22
7.2305940096776e-23
1.9838821324993e-23
5.403241823222e-24
1.4613454701219e-24
3.9260936796766e-25
1.048128819208e-25
2.7812561512676e-26
7.3376339671115e-27
1.9251634424697e-27
5.0243018934246e-28
1.3045883680456e-28
3.3709146070115e-29
8.6692117072641e-30
2.2194483701679e-30
5.6573797575607e-31
1.4360099073964e-31
3.6302321186959e-32
9.1412510940581e-33
2.2931222967253e-33
5.7312944940914e-34
1.4273371250183e-34
3.5428850166051e-35
8.7530150887688e-36
2.1854475456051e-36
4.7188170969653e-37
2.1324208365885e-37
0
0
0
6.1034939116114e-57
2.3115194765218e-43
5.583819902063e-28
4.1354172318166e-26
1.5062221727531e-24
3.5984450122793e-23
6.3289644052158e-22
8.7357293305614e-21
9.858449349511e-20
9.3402986280048e-19
7.5750892010082e-18
5.3345426009219e-17
3.2975192921628e-16
1.8046808933076e-15
8.8007005999793e-15
3.8422287958622e-14
1.5126902058124e-13
5.4124244091961e-13
1.7700077936786e-12
5.4553313007232e-12
1.5819439744285e-11
4.7578505932739e-11
1.3799652858624e-10
3.6946078308115e-10
3.6953319155257e-10
3.0275309300408e-10
8.1584324224308e-10
2.0189237847322e-08
2.2041955988611e-07
4.1384581156292e-06
2.9100995086954e-05
0.00021049960161436
0.00027086341835131
0.00014468238150521
4.0826601736086e-05
1.1791990617757e-05
4.433060018699e-06
1.3844530783031e-06
2.28545342139e-07
1.1454068306497e-08
5.8119761574722e-10
1.2334754558859e-10
3.4623912905016e-11
1.3615941002626e-11
1.1449407966588e-11
1.0121662023868e-11
7.7631924819587e-12
5.5517259023366e-12
3.9018786900158e-12
2.6857007688581e-12
1.7880818137375e-12
1.1347826442383e-12
6.7364643458555e-13
3.6641564115232e-13
1.7948617761678e-13
7.8583801497862e-14
3.0964260159246e-14
1.1205885147797e-14
3.8233953631206e-15
1.2576505686788e-15
4.0423674103565e-16
1.2770226406481e-16
3.972108056613e-17
1.2171928328576e-17
3.6769621341969e-18
1.09596194373e-18
3.2263293307314e-19
9.3894098773423e-20
2.7036135311348e-20
7.7079418270595e-21
2.1771613550682e-21
6.0959508189154e-22
1.6928048836906e-22
4.6642572060594e-23
1.2756924255535e-23
3.4646510068854e-24
9.346982304648e-25