/*--------------------------------*- C++ -*----------------------------------*\
  =========                 |
  \\      /  F ield         | OpenFOAM: The Open Source CFD Toolbox
   \\    /   O peration     | Website:  https://openfoam.org
    \\  /    A nd           | Version:  7
     \\/     M anipulation  |
\*---------------------------------------------------------------------------*/
FoamFile
{
    version     2.0;
    format      ascii;
    class       volScalarField;
    location    "234";
    object      k;
}
// * * * * * * * * * * * * * * * * * * * * * * * * * * * * * * * * * * * * * //

dimensions      [0 2 -2 0 0 0 0];

internalField   nonuniform List<scalar> 
12225
(
0.233345
0.116785
0.10029
0.0928467
0.0876435
0.0833105
0.0795232
0.0761572
0.0731401
0.070423
0.0679687
0.0657477
0.0637369
0.0619194
0.0602885
0.0588604
0.0576075
0.057516
0.315612
0.236007
0.21459
0.203237
0.194943
0.187969
0.181823
0.176317
0.171345
0.166833
0.162727
0.158982
0.155561
0.15243
0.149557
0.146892
0.144394
0.141601
0.347026
0.295217
0.273454
0.26009
0.249869
0.241131
0.233335
0.226278
0.219846
0.213963
0.208569
0.203613
0.19905
0.194838
0.190928
0.187255
0.183757
0.18002
0.363261
0.332135
0.313063
0.299365
0.288244
0.278485
0.269647
0.26156
0.254128
0.247285
0.240974
0.235146
0.229753
0.224746
0.220071
0.215663
0.21146
0.207255
0.372812
0.357363
0.342528
0.329786
0.318555
0.308318
0.298852
0.290071
0.281924
0.274366
0.267353
0.260844
0.254792
0.24915
0.243862
0.238871
0.234133
0.229563
0.378779
0.374552
0.364834
0.35403
0.343385
0.333161
0.323438
0.314257
0.305633
0.29756
0.290018
0.282976
0.276397
0.27024
0.264454
0.258995
0.253838
0.248954
0.38223
0.385808
0.381204
0.373052
0.363612
0.353873
0.344257
0.334968
0.326107
0.317717
0.309812
0.302382
0.295403
0.288845
0.282668
0.276843
0.271359
0.266208
0.383611
0.392603
0.392077
0.387205
0.379455
0.370638
0.361497
0.352403
0.343555
0.33506
0.326971
0.319308
0.312066
0.305229
0.298773
0.292684
0.286958
0.281595
0.383449
0.395389
0.398443
0.39626
0.390861
0.383344
0.375026
0.366434
0.357863
0.34949
0.341413
0.333689
0.326336
0.319357
0.312745
0.3065
0.300625
0.295116
0.382192
0.394938
0.400634
0.400537
0.397544
0.391726
0.384574
0.376775
0.368745
0.36073
0.352876
0.34528
0.337985
0.331016
0.324383
0.318101
0.312176
0.306606
0.3803
0.391926
0.398994
0.400848
0.399453
0.395576
0.389757
0.383021
0.375804
0.368402
0.361005
0.353737
0.34668
0.339884
0.333379
0.327189
0.321329
0.315796
0.378355
0.387573
0.394584
0.397612
0.397286
0.395017
0.39055
0.384864
0.378512
0.371827
0.365029
0.358251
0.351592
0.34512
0.338882
0.332906
0.327218
0.321824
0.376503
0.382498
0.388424
0.391827
0.392271
0.391069
0.388006
0.383399
0.378009
0.372142
0.366029
0.359833
0.35367
0.347622
0.341746
0.336092
0.330682
0.325529
0.37473
0.376462
0.380083
0.382787
0.383506
0.382912
0.381012
0.377553
0.373255
0.368394
0.363186
0.357797
0.352348
0.346931
0.341613
0.336442
0.331453
0.326671
0.37273
0.370582
0.370676
0.371175
0.371129
0.370522
0.369039
0.366481
0.363199
0.359378
0.355184
0.350754
0.3462
0.341608
0.337043
0.332556
0.328187
0.323971
0.371139
0.365255
0.361464
0.358976
0.357003
0.355169
0.353184
0.350838
0.348117
0.345068
0.34176
0.338264
0.33465
0.330976
0.327291
0.323634
0.320039
0.316548
0.369958
0.361271
0.354286
0.348746
0.344243
0.340458
0.337145
0.334095
0.33117
0.328291
0.325417
0.322534
0.319644
0.316755
0.313879
0.31103
0.308223
0.305481
0.369316
0.359172
0.350474
0.343113
0.336883
0.331589
0.327057
0.32312
0.319633
0.31648
0.313572
0.310842
0.308243
0.305742
0.303319
0.300958
0.298656
0.296416
0.369502
0.359745
0.351466
0.344534
0.338709
0.333768
0.329522
0.325797
0.322452
0.31938
0.316504
0.313767
0.311134
0.308579
0.306088
0.303653
0.301267
0.298918
0.370696
0.363759
0.358758
0.355129
0.352267
0.349797
0.34744
0.344988
0.342364
0.339556
0.336582
0.33348
0.330288
0.327045
0.323784
0.320534
0.317317
0.314145
0.372683
0.37037
0.370289
0.370566
0.37048
0.369887
0.368479
0.366085
0.362999
0.35939
0.35541
0.351191
0.346838
0.342434
0.33804
0.333703
0.329456
0.325321
0.375599
0.379068
0.383909
0.387086
0.387882
0.387129
0.384889
0.381059
0.376402
0.371212
0.365708
0.360061
0.354393
0.348789
0.343308
0.337989
0.332857
0.327935
0.378755
0.388351
0.395549
0.398435
0.397932
0.395421
0.390633
0.384752
0.378248
0.371445
0.364589
0.357799
0.351157
0.344721
0.338527
0.332595
0.326938
0.321566
0.381901
0.394279
0.400226
0.400143
0.397283
0.391611
0.3846
0.376936
0.369017
0.361095
0.353308
0.345762
0.338521
0.331616
0.325062
0.318856
0.312996
0.307479
0.383411
0.393688
0.395141
0.391702
0.384913
0.37662
0.367743
0.358764
0.34994
0.341413
0.333252
0.325505
0.318185
0.311287
0.304797
0.2987
0.292978
0.287625
0.381712
0.384449
0.379881
0.371236
0.361443
0.351451
0.341663
0.332237
0.323262
0.31478
0.306796
0.299308
0.292298
0.285744
0.279618
0.273893
0.268543
0.263563
0.375352
0.364935
0.352089
0.339755
0.328383
0.31785
0.308037
0.298877
0.290336
0.282382
0.27498
0.268096
0.261696
0.255743
0.250204
0.245048
0.240242
0.235791
0.363151
0.330201
0.310878
0.296826
0.28536
0.275349
0.266306
0.258029
0.250416
0.243399
0.236919
0.23093
0.225389
0.220258
0.2155
0.211086
0.206978
0.203199
0.338596
0.272956
0.249921
0.236557
0.226522
0.218069
0.21057
0.203792
0.19762
0.191978
0.186804
0.18205
0.177674
0.173641
0.169916
0.166476
0.163275
0.160372
0.277118
0.165425
0.14218
0.131301
0.123807
0.117674
0.112301
0.107487
0.103133
0.0991761
0.0955678
0.0922693
0.089248
0.0864765
0.0839263
0.0815891
0.0794022
0.0774558
3.23492e-05
0.000240293
0.000485679
0.0007058
0.000886159
0.00103715
0.00119715
0.00136311
0.00154227
0.0017425
0.00196994
0.00222954
0.00252616
0.00286669
0.00325938
0.00371245
0.0042322
0.00482118
0.00547662
0.00619425
0.00696861
0.00779424
0.00866529
0.00957588
0.0105202
0.0114925
0.0124886
0.013505
0.0145388
0.0155875
0.0166487
0.0177209
0.0188022
0.0198913
0.0209869
0.0220877
0.0231926
0.0243005
0.0254101
0.0265205
0.0276303
0.0287385
0.0298436
0.0309446
0.0320399
0.0331283
0.034208
0.0352777
0.0363356
0.0373802
0.0384099
0.0394233
0.0404191
0.0413968
0.0423571
0.043303
0.0442226
0.0451188
0.0459894
0.0468337
0.0476502
0.0484377
0.0491949
0.0499206
0.0506138
0.0512731
0.0518979
0.0524869
0.0530396
0.053555
0.0540327
0.0544719
0.0548723
0.0552335
0.0555554
0.0558375
0.0560803
0.0562833
0.0564469
0.056571
0.0566559
0.0566958
0.0567014
0.0566755
0.0566105
0.0565082
0.0563702
0.0561974
0.0559908
0.0557514
0.0554799
0.0551777
0.0548459
0.0544857
0.0540982
0.0536846
0.0532459
0.0527836
0.0522988
0.0517928
0.0512668
0.0507219
0.0501595
0.0495808
0.048987
0.048379
0.0477588
0.0471276
0.0464858
0.045834
0.0451737
0.044506
0.043832
0.0431528
0.0424693
0.0417824
0.041093
0.0404021
0.0397103
0.0390186
0.0383277
0.0376382
0.0369509
0.0362664
0.0355853
0.0349083
0.0342357
0.0335682
0.0329063
0.0322505
0.0316011
0.0309585
0.0303232
0.0296953
0.0290753
0.0284634
0.0278597
0.0272647
0.0266785
0.0261013
0.0255333
0.0249746
0.0244253
0.0238855
0.0233552
0.0228346
0.0223236
0.0218223
0.0213307
0.0208488
0.0203766
0.0199141
0.0194613
0.0190182
0.0185846
0.0181606
0.0177459
0.0173406
0.0169445
0.0165577
0.0161799
0.0158111
0.0154509
0.0150994
0.0147563
0.0144214
0.0140946
0.0137755
0.0134639
0.0131595
0.0128615
0.0125702
0.0122858
0.0120057
0.0117308
0.0114528
0.0111904
0.0108831
0.010655
0.00981377
0.000192297
0.00136673
0.00242819
0.00321321
0.00384861
0.0044037
0.00491682
0.00543295
0.00597768
0.00656328
0.00719361
0.00786855
0.00858883
0.00935851
0.010182
0.0110626
0.0120013
0.0129962
0.0140423
0.0151346
0.0162675
0.0174362
0.0186357
0.0198619
0.0211112
0.0223807
0.0236685
0.0249726
0.0262917
0.0276247
0.0289702
0.0303275
0.0316953
0.0330727
0.0344586
0.0358521
0.037252
0.0386571
0.0400663
0.0414783
0.0428918
0.0443054
0.0457178
0.0471273
0.0485325
0.0499315
0.0513226
0.0527039
0.0540734
0.0554291
0.0567684
0.0580892
0.0593884
0.0606631
0.0619094
0.0631226
0.0643075
0.065464
0.0665906
0.0676856
0.0687474
0.0697741
0.0707641
0.0717158
0.0726276
0.073498
0.0743258
0.0751096
0.0758484
0.076541
0.0771867
0.0777846
0.0783341
0.0788348
0.0792862
0.0796881
0.0800405
0.0803433
0.0805967
0.0808009
0.0809564
0.0810608
0.081112
0.0811248
0.0810934
0.0810145
0.0808905
0.0807227
0.0805125
0.0802611
0.0799696
0.0796394
0.079272
0.0788687
0.078431
0.0779603
0.0774581
0.0769259
0.0763652
0.0757774
0.0751641
0.0745267
0.0738669
0.0731859
0.0724855
0.071767
0.0710322
0.0702825
0.0695187
0.0687419
0.0679534
0.0671546
0.0663468
0.0655312
0.064709
0.0638812
0.063049
0.0622133
0.0613752
0.0605356
0.0596953
0.0588553
0.0580163
0.0571791
0.0563445
0.0555131
0.0546855
0.0538625
0.0530445
0.0522322
0.0514261
0.0506266
0.0498342
0.0490493
0.0482723
0.0475035
0.0467434
0.0459921
0.0452501
0.0445176
0.0437948
0.0430818
0.042379
0.0416863
0.041004
0.0403321
0.0396708
0.0390201
0.0383801
0.0377509
0.0371325
0.0365251
0.0359286
0.035343
0.0347682
0.0342044
0.0336513
0.0331091
0.0325776
0.0320567
0.0315464
0.0310467
0.0305574
0.0300785
0.0296098
0.0291513
0.0287027
0.0282638
0.0278345
0.0274145
0.0270037
0.0266008
0.026204
0.0258139
0.0254302
0.0250519
0.024684
0.0243033
0.0240128
0.0231668
0.000453956
0.00277649
0.00440763
0.00555775
0.00650306
0.00735726
0.00817965
0.00900655
0.00985855
0.0107448
0.0116675
0.0126262
0.0136211
0.0146532
0.015724
0.0168349
0.0179859
0.0191769
0.0204071
0.0216749
0.022978
0.0243135
0.0256787
0.0270714
0.0284897
0.0299316
0.0313955
0.0328797
0.0343827
0.035903
0.0374391
0.0389897
0.0405534
0.0421289
0.0437148
0.0453098
0.0469128
0.0485223
0.050137
0.0517556
0.0533766
0.0549985
0.0566198
0.0582388
0.0598537
0.0614627
0.0630639
0.0646551
0.0662343
0.0677991
0.0693472
0.0708762
0.0723837
0.0738672
0.0753243
0.0767532
0.0781521
0.0795191
0.0808521
0.0821488
0.083407
0.0846245
0.0857992
0.0869292
0.0880125
0.0890473
0.0900319
0.0909649
0.0918447
0.0926703
0.0934404
0.0941541
0.0948108
0.0954096
0.0959502
0.0964323
0.0968558
0.0972206
0.097527
0.0977751
0.0979653
0.0980979
0.0981681
0.0981881
0.0981565
0.09807
0.0979303
0.097739
0.0974976
0.0972074
0.09687
0.096487
0.0960599
0.0955906
0.0950805
0.0945316
0.0939455
0.093324
0.0926687
0.0919815
0.091264
0.0905181
0.0897455
0.088948
0.0881271
0.0872848
0.0864226
0.0855423
0.0846452
0.0837328
0.0828065
0.0818678
0.0809181
0.0799588
0.0789912
0.0780166
0.0770362
0.0760513
0.0750628
0.074072
0.0730797
0.0720871
0.071095
0.0701042
0.0691157
0.0681302
0.0671485
0.0661712
0.0651991
0.0642327
0.0632727
0.0623196
0.0613739
0.060436
0.0595065
0.0585857
0.0576741
0.0567719
0.0558795
0.0549972
0.0541254
0.0532641
0.0524137
0.0515743
0.0507461
0.0499292
0.0491238
0.04833
0.0475479
0.0467775
0.046019
0.0452725
0.044538
0.0438154
0.0431047
0.042406
0.0417192
0.0410444
0.0403815
0.0397304
0.0390911
0.0384635
0.0378476
0.0372432
0.0366503
0.0360688
0.0354986
0.0349395
0.0343913
0.033854
0.0333275
0.0328114
0.0323047
0.0318077
0.0313205
0.0308446
0.0303851
0.029931
0.0295939
0.0288734
0.000792518
0.00422699
0.00634625
0.00778882
0.00895896
0.0100074
0.0110085
0.0120044
0.0130182
0.0140609
0.015136
0.0162438
0.0173837
0.0185562
0.0197623
0.0210036
0.0222816
0.0235972
0.0249504
0.0263406
0.0277663
0.0292261
0.0307182
0.0322409
0.0337924
0.0353708
0.0369743
0.0386014
0.0402504
0.0419198
0.0436079
0.0453136
0.0470353
0.0487717
0.0505215
0.0522835
0.0540562
0.0558384
0.0576285
0.0594252
0.0612268
0.0630318
0.0648383
0.0666446
0.0684485
0.0702482
0.0720412
0.0738255
0.0755984
0.0773575
0.0791003
0.080824
0.082526
0.0842037
0.0858542
0.0874749
0.089063
0.0906159
0.0921308
0.093605
0.0950359
0.0964208
0.0977574
0.0990433
0.100276
0.101454
0.102574
0.103636
0.104638
0.105577
0.106453
0.107265
0.108012
0.108693
0.109307
0.109855
0.110336
0.11075
0.111097
0.111378
0.111593
0.111742
0.111823
0.111844
0.111805
0.111705
0.111544
0.111325
0.111049
0.110718
0.110333
0.109896
0.10941
0.108875
0.108295
0.10767
0.107003
0.106296
0.105551
0.10477
0.103954
0.103107
0.102229
0.101324
0.100391
0.099435
0.0984562
0.0974567
0.0964383
0.0954026
0.0943513
0.093286
0.0922083
0.0911197
0.0900218
0.088916
0.0878035
0.0866859
0.0855642
0.0844398
0.0833136
0.0821869
0.0810607
0.0799359
0.0788134
0.0776942
0.076579
0.0754686
0.0743638
0.0732652
0.0721735
0.0710893
0.0700132
0.0689457
0.0678873
0.0668384
0.0657994
0.0647708
0.0637528
0.0627458
0.0617502
0.0607661
0.0597938
0.0588336
0.0578856
0.05695
0.0560269
0.0551165
0.0542189
0.0533341
0.0524623
0.0516035
0.0507578
0.0499252
0.0491057
0.0482993
0.0475061
0.0467259
0.0459588
0.0452048
0.0444637
0.0437355
0.0430202
0.0423176
0.0416278
0.0409505
0.0402858
0.0396335
0.0389935
0.0383658
0.0377503
0.0371472
0.036556
0.035977
0.0354112
0.0348607
0.0343306
0.0338184
0.0334084
0.0327615
0.00115923
0.00560185
0.00814615
0.00983842
0.0111897
0.01238
0.013498
0.0145934
0.0156949
0.0168181
0.0179704
0.0191549
0.0203728
0.0216252
0.0229134
0.0242387
0.0256026
0.0270057
0.0284483
0.0299298
0.0314494
0.0330059
0.0345978
0.0362235
0.0378814
0.0395698
0.0412873
0.0430321
0.044803
0.0465984
0.0484171
0.0502576
0.0521186
0.0539988
0.0558969
0.0578115
0.0597412
0.0616844
0.0636397
0.0656052
0.0675793
0.06956
0.0715454
0.0735332
0.0755211
0.0775067
0.0794875
0.0814608
0.0834237
0.0853734
0.0873068
0.0892209
0.0911125
0.0929784
0.0948152
0.0966198
0.0983887
0.100119
0.101807
0.10345
0.105044
0.106588
0.108077
0.10951
0.110883
0.112195
0.113442
0.114624
0.115738
0.116783
0.117757
0.118659
0.119488
0.120244
0.120925
0.121532
0.122063
0.12252
0.122903
0.123212
0.123447
0.123609
0.123696
0.123716
0.123668
0.123552
0.123369
0.123121
0.12281
0.122437
0.122005
0.121516
0.120971
0.120374
0.119725
0.119028
0.118284
0.117496
0.116665
0.115795
0.114887
0.113944
0.112967
0.11196
0.110923
0.10986
0.108772
0.107662
0.106531
0.105381
0.104214
0.103031
0.101835
0.100627
0.0994095
0.0981828
0.0969491
0.0957097
0.094466
0.0932193
0.0919709
0.0907219
0.0894736
0.0882268
0.0869827
0.0857422
0.0845062
0.0832756
0.0820511
0.0808335
0.0796234
0.0784216
0.0772286
0.0760451
0.0748715
0.0737083
0.0725559
0.0714149
0.0702855
0.0691681
0.068063
0.0669706
0.065891
0.0648246
0.0637714
0.0627317
0.0617057
0.0606935
0.0596951
0.0587108
0.0577405
0.0567844
0.0558425
0.0549149
0.0540015
0.0531024
0.0522176
0.051347
0.0504906
0.0496484
0.0488204
0.0480064
0.0472065
0.0464205
0.0456485
0.0448902
0.0441457
0.0434149
0.0426977
0.0419942
0.0413044
0.0406286
0.0399668
0.0393196
0.0386884
0.0380757
0.0374864
0.0369232
0.0364417
0.0358042
0.00150561
0.00681188
0.00970644
0.0116069
0.0131058
0.0144058
0.0156072
0.0167672
0.0179204
0.0190876
0.0202809
0.021507
0.0227694
0.0240705
0.0254116
0.0267941
0.0282188
0.0296861
0.031196
0.0327481
0.0343416
0.0359755
0.0376484
0.039359
0.0411059
0.042888
0.0447037
0.046552
0.0484315
0.0503409
0.0522791
0.0542446
0.0562363
0.0582528
0.0602926
0.0623543
0.0644362
0.0665368
0.0686541
0.0707863
0.0729313
0.0750869
0.0772506
0.0794198
0.0815919
0.083764
0.0859331
0.0880959
0.0902491
0.0923895
0.0945133
0.096617
0.0986969
0.100749
0.10277
0.104755
0.106702
0.108605
0.110463
0.11227
0.114024
0.115721
0.117358
0.118932
0.120441
0.121881
0.12325
0.124546
0.125767
0.126912
0.127978
0.128965
0.129871
0.130696
0.131439
0.1321
0.132678
0.133174
0.133588
0.133921
0.134173
0.134345
0.134436
0.134452
0.134393
0.134259
0.134053
0.133776
0.133429
0.133016
0.132537
0.131997
0.131396
0.130737
0.130022
0.129255
0.128436
0.12757
0.126658
0.125703
0.124706
0.123672
0.122601
0.121498
0.120362
0.119198
0.118008
0.116792
0.115555
0.114297
0.113021
0.111728
0.110421
0.109101
0.107771
0.106431
0.105083
0.10373
0.102372
0.101011
0.0996487
0.0982857
0.0969235
0.0955633
0.0942061
0.0928529
0.0915047
0.0901625
0.0888271
0.0874992
0.0861797
0.0848692
0.0835684
0.0822779
0.0809982
0.0797298
0.0784733
0.0772291
0.0759975
0.074779
0.0735738
0.0723824
0.0712049
0.0700416
0.0688928
0.0677585
0.066639
0.0655344
0.0644449
0.0633704
0.0623112
0.0612673
0.0602387
0.0592256
0.0582278
0.0572454
0.0562784
0.0553268
0.0543905
0.0534696
0.052564
0.0516735
0.0507983
0.0499382
0.0490931
0.0482631
0.047448
0.0466479
0.0458627
0.0450926
0.0443377
0.0435983
0.0428747
0.0421679
0.0414794
0.0408121
0.0401704
0.0395598
0.0390141
0.0383625
0.00180097
0.00780438
0.0109735
0.0130411
0.0146592
0.0160476
0.0173149
0.0185239
0.0197139
0.0209105
0.0221298
0.0233817
0.0246723
0.0260051
0.0273822
0.0288049
0.030274
0.0317896
0.0333518
0.0349601
0.0366136
0.0383114
0.0400525
0.0418362
0.0436612
0.0455268
0.0474318
0.0493752
0.051356
0.053373
0.0554251
0.057511
0.0596294
0.061779
0.0639582
0.0661654
0.0683989
0.0706568
0.0729368
0.0752367
0.0775541
0.0798862
0.0822303
0.0845832
0.0869418
0.0893025
0.0916618
0.094016
0.0963611
0.0986932
0.101008
0.103302
0.105569
0.107807
0.11001
0.112175
0.114296
0.11637
0.118393
0.120361
0.12227
0.124116
0.125896
0.127607
0.129245
0.130808
0.132293
0.133698
0.135021
0.136259
0.137412
0.138477
0.139455
0.140344
0.141143
0.141853
0.142473
0.143003
0.143445
0.143798
0.144064
0.144243
0.144334
0.144344
0.144273
0.14412
0.143889
0.143582
0.1432
0.142745
0.142221
0.14163
0.140973
0.140255
0.139476
0.138641
0.137751
0.13681
0.135819
0.134782
0.133702
0.13258
0.13142
0.130224
0.128995
0.127735
0.126446
0.125132
0.123793
0.122433
0.121054
0.119657
0.118245
0.116819
0.115382
0.113935
0.112481
0.11102
0.109555
0.108086
0.106616
0.105146
0.103677
0.10221
0.100746
0.0992871
0.0978338
0.0963869
0.0949475
0.0935165
0.0920945
0.0906824
0.0892807
0.0878903
0.0865116
0.0851452
0.0837917
0.0824514
0.0811248
0.0798123
0.0785142
0.077231
0.0759627
0.0747097
0.0734723
0.0722505
0.0710447
0.0698548
0.0686811
0.0675237
0.0663826
0.0652579
0.0641497
0.0630579
0.0619827
0.060924
0.0598818
0.0588561
0.0578468
0.056854
0.0558776
0.0549175
0.0539737
0.0530462
0.0521348
0.0512396
0.0503606
0.0494978
0.0486512
0.0478209
0.0470073
0.0462106
0.0454316
0.0446712
0.0439313
0.0432147
0.0425254
0.0418698
0.0412672
0.0405931
0.00203032
0.00856403
0.011936
0.0141307
0.0158423
0.0173029
0.0186256
0.0198767
0.0210989
0.0223207
0.0235612
0.0248332
0.0261446
0.0275007
0.0289044
0.0303576
0.0318611
0.0334153
0.0350197
0.0366742
0.0383783
0.0401314
0.0419331
0.0437826
0.0456795
0.047623
0.0496124
0.0516468
0.0537255
0.0558473
0.0580113
0.0602163
0.0624611
0.0647442
0.0670638
0.0694182
0.0718052
0.0742227
0.0766681
0.0791386
0.0816314
0.0841431
0.0866705
0.0892098
0.0917573
0.0943088
0.0968601
0.0994069
0.101945
0.104469
0.106974
0.109456
0.11191
0.11433
0.116713
0.119053
0.121345
0.123585
0.125769
0.127891
0.129949
0.131937
0.133853
0.135693
0.137453
0.139131
0.140724
0.14223
0.143646
0.14497
0.146202
0.147339
0.148381
0.149326
0.150175
0.150928
0.151583
0.152143
0.152606
0.152975
0.15325
0.153431
0.153521
0.153522
0.153435
0.153262
0.153005
0.152667
0.152248
0.151753
0.151184
0.150542
0.149832
0.149055
0.148215
0.147315
0.146356
0.145343
0.144277
0.143163
0.142002
0.140798
0.139552
0.138269
0.136951
0.1356
0.134219
0.132811
0.131377
0.129921
0.128444
0.126949
0.125437
0.123912
0.122375
0.120828
0.119272
0.11771
0.116144
0.114574
0.113003
0.111432
0.109862
0.108295
0.106732
0.105174
0.103622
0.102077
0.10054
0.0990118
0.0974938
0.0959864
0.0944904
0.0930064
0.0915351
0.090077
0.0886327
0.0872026
0.0857873
0.084387
0.0830022
0.0816332
0.0802803
0.0789438
0.0776239
0.0763207
0.0750345
0.0737654
0.0725136
0.0712791
0.070062
0.0688624
0.0676804
0.066516
0.0653691
0.0642398
0.0631282
0.0620341
0.0609575
0.0598985
0.0588569
0.0578327
0.0568259
0.0558364
0.0548642
0.0539093
0.0529717
0.0520514
0.0511486
0.0502634
0.0493961
0.0485473
0.0477176
0.0469084
0.0461213
0.0453592
0.044626
0.0439276
0.0432742
0.0425728
0.00219057
0.00910115
0.0126101
0.014895
0.0166768
0.0181951
0.019565
0.0208544
0.0221074
0.0233541
0.0246158
0.025907
0.0272378
0.0286146
0.0300413
0.0315202
0.0330524
0.0346387
0.0362795
0.0379748
0.0397246
0.0415289
0.0433874
0.0452999
0.0472662
0.049286
0.0513587
0.0534838
0.0556605
0.0578882
0.0601659
0.0624924
0.0648662
0.0672859
0.0697494
0.0722546
0.074799
0.0773801
0.0799947
0.0826397
0.0853114
0.0880061
0.0907197
0.0934478
0.0961859
0.0989294
0.101673
0.104412
0.107141
0.109855
0.112548
0.115214
0.11785
0.120448
0.123003
0.125511
0.127966
0.130364
0.132698
0.134966
0.137162
0.139282
0.141323
0.143281
0.145152
0.146934
0.148624
0.150219
0.151717
0.153117
0.154417
0.155615
0.156711
0.157704
0.158594
0.15938
0.160063
0.160644
0.161123
0.161501
0.161779
0.161959
0.162041
0.16203
0.161925
0.161729
0.161445
0.161073
0.160618
0.160082
0.159468
0.158777
0.158015
0.157182
0.156283
0.15532
0.154296
0.153214
0.152078
0.15089
0.149654
0.148372
0.147047
0.145682
0.144281
0.142845
0.141377
0.139881
0.138359
0.136813
0.135245
0.133658
0.132055
0.130437
0.128806
0.127165
0.125516
0.12386
0.122199
0.120536
0.118871
0.117206
0.115542
0.113882
0.112225
0.110575
0.108931
0.107294
0.105666
0.104048
0.102441
0.100845
0.0992607
0.0976896
0.096132
0.0945885
0.0930596
0.091546
0.0900479
0.088566
0.0871004
0.0856517
0.0842201
0.0828058
0.0814091
0.0800303
0.0786694
0.0773268
0.0760023
0.0746963
0.0734088
0.0721397
0.0708893
0.0696575
0.0684443
0.0672498
0.0660738
0.0649165
0.0637777
0.0626575
0.0615557
0.0604724
0.0594075
0.058361
0.0573328
0.0563229
0.0553314
0.0543584
0.0534039
0.0524683
0.0515519
0.0506552
0.0497791
0.0489248
0.0480942
0.04729
0.0465157
0.0457764
0.045077
0.044346
0.00228588
0.00943886
0.0130278
0.0153703
0.0172009
0.0187632
0.0201724
0.0214962
0.0227792
0.0240522
0.0253375
0.0266505
0.0280021
0.0293997
0.0308483
0.0323511
0.0339103
0.0355274
0.0372032
0.0389384
0.0407335
0.042589
0.044505
0.0464818
0.0485196
0.0506182
0.0527774
0.0549968
0.057276
0.0596145
0.0620111
0.0644646
0.0669735
0.0695358
0.0721492
0.0748113
0.077519
0.0802692
0.0830582
0.0858822
0.0887367
0.0916174
0.0945193
0.0974374
0.100366
0.103301
0.106235
0.109162
0.112078
0.114976
0.117849
0.120692
0.123499
0.126264
0.128982
0.131645
0.13425
0.136791
0.139263
0.14166
0.143979
0.146216
0.148366
0.150426
0.152392
0.154262
0.156033
0.157702
0.159267
0.160727
0.162081
0.163326
0.164463
0.165491
0.16641
0.16722
0.167921
0.168514
0.168999
0.169378
0.169653
0.169825
0.169895
0.169866
0.169741
0.169518
0.169204
0.168798
0.168306
0.167729
0.16707
0.166332
0.165519
0.164633
0.163677
0.162655
0.16157
0.160425
0.159223
0.157967
0.156661
0.155307
0.153908
0.152469
0.15099
0.149477
0.14793
0.146353
0.14475
0.143121
0.14147
0.1398
0.138112
0.136409
0.134693
0.132966
0.131231
0.129489
0.127742
0.125992
0.12424
0.122489
0.12074
0.118994
0.117252
0.115516
0.113787
0.112067
0.110356
0.108654
0.106965
0.105287
0.103622
0.10197
0.100333
0.0987107
0.0971038
0.095513
0.0939387
0.0923813
0.0908413
0.0893189
0.0878146
0.0863286
0.0848611
0.0834124
0.0819826
0.080572
0.0791806
0.0778085
0.076456
0.0751229
0.0738093
0.0725154
0.0712411
0.0699863
0.0687512
0.0675356
0.0663395
0.0651629
0.0640058
0.0628681
0.0617497
0.0606507
0.059571
0.0585107
0.0574697
0.0564483
0.0554465
0.0544646
0.053503
0.0525624
0.0516436
0.050748
0.0498772
0.0490339
0.0482211
0.0474433
0.0467018
0.0459406
0.00232286
0.00960592
0.0132259
0.0155977
0.017458
0.0190516
0.0204929
0.0218486
0.0231621
0.0244635
0.0257746
0.0271118
0.0284866
0.0299076
0.0313808
0.0329104
0.0344995
0.0361503
0.0378646
0.0396437
0.0414887
0.0434005
0.04538
0.0474277
0.0495439
0.0517289
0.0539827
0.0563053
0.0586965
0.0611553
0.0636808
0.0662713
0.068925
0.0716396
0.0744122
0.0772398
0.0801188
0.0830451
0.0860144
0.089022
0.0920628
0.0951313
0.0982219
0.101329
0.104445
0.107566
0.110684
0.113792
0.116884
0.119954
0.122995
0.126
0.128964
0.131879
0.134739
0.13754
0.140274
0.142938
0.145525
0.148031
0.150452
0.152782
0.155019
0.157159
0.159199
0.161135
0.162966
0.164689
0.166302
0.167803
0.169192
0.170468
0.17163
0.172677
0.173611
0.17443
0.175136
0.175729
0.176211
0.176582
0.176845
0.177001
0.177052
0.177002
0.176851
0.176599
0.176251
0.175811
0.17528
0.174662
0.17396
0.173176
0.172315
0.171378
0.17037
0.169294
0.168152
0.166949
0.165687
0.164369
0.162999
0.161581
0.160116
0.158609
0.157062
0.155478
0.15386
0.152212
0.150535
0.148833
0.147108
0.145363
0.143599
0.14182
0.140028
0.138225
0.136412
0.134593
0.132769
0.130941
0.129113
0.127284
0.125457
0.123634
0.121815
0.120003
0.118198
0.116401
0.114615
0.112838
0.111074
0.109322
0.107583
0.105859
0.10415
0.102456
0.100778
0.0991172
0.0974735
0.0958475
0.0942396
0.0926502
0.0910796
0.0895281
0.087996
0.0864836
0.0849909
0.0835183
0.0820657
0.0806334
0.0792214
0.0778297
0.0764586
0.0751078
0.0737776
0.0724679
0.0711786
0.0699098
0.0686613
0.0674333
0.0662256
0.0650382
0.063871
0.0627241
0.0615974
0.0604909
0.0594048
0.0583391
0.0572941
0.05627
0.0552672
0.0542865
0.0533287
0.052395
0.0514873
0.0506078
0.0497591
0.0489451
0.048165
0.0473744
0.00230486
0.00960447
0.01322
0.0156027
0.0174833
0.0191032
0.0205742
0.0219608
0.0233053
0.0246372
0.0259776
0.0273433
0.0287467
0.0301972
0.0317016
0.0332652
0.0348921
0.0365854
0.0383476
0.0401808
0.0420869
0.0440672
0.0461227
0.0482542
0.0504626
0.0527486
0.0551123
0.057554
0.0600729
0.0626682
0.0653383
0.0680812
0.0708945
0.0737751
0.0767196
0.0797239
0.0827837
0.085894
0.0890495
0.0922445
0.0954728
0.0987283
0.102004
0.105294
0.10859
0.111886
0.115174
0.118447
0.121699
0.124922
0.128109
0.131253
0.134348
0.137387
0.140364
0.143273
0.146109
0.148866
0.151539
0.154124
0.156616
0.159012
0.161307
0.163498
0.165583
0.167559
0.169423
0.171174
0.17281
0.17433
0.175732
0.177017
0.178183
0.179232
0.180162
0.180975
0.181671
0.182251
0.182717
0.18307
0.183311
0.183443
0.183468
0.183391
0.183208
0.182923
0.182541
0.182063
0.181494
0.180835
0.180091
0.179264
0.178357
0.177374
0.176318
0.175192
0.174
0.172744
0.171429
0.170057
0.168632
0.167156
0.165634
0.164068
0.162461
0.160817
0.159138
0.157428
0.155688
0.153923
0.152134
0.150323
0.148495
0.14665
0.144792
0.142922
0.141043
0.139157
0.137265
0.13537
0.133474
0.131578
0.129684
0.127793
0.125907
0.124028
0.122155
0.120292
0.118439
0.116596
0.114766
0.112949
0.111145
0.109356
0.107582
0.105825
0.104084
0.102361
0.100655
0.098968
0.0972994
0.0956501
0.0940202
0.0924101
0.0908201
0.0892505
0.0877014
0.086173
0.0846655
0.0831789
0.0817135
0.0802691
0.078846
0.0774442
0.0760636
0.0747042
0.0733661
0.0720493
0.0707536
0.0694791
0.0682257
0.0669934
0.0657821
0.0645919
0.0634227
0.0622746
0.0611477
0.060042
0.0589578
0.0578955
0.0568554
0.0558382
0.0548449
0.0538767
0.0529351
0.0520223
0.0511405
0.0502929
0.0494775
0.0486591
0.00226513
0.00954626
0.0131316
0.015507
0.0173888
0.0190168
0.0205016
0.0219068
0.0232737
0.0246322
0.0260052
0.0274071
0.0288483
0.0303385
0.031886
0.033497
0.0351767
0.036929
0.0387572
0.0406638
0.0426509
0.0447202
0.0468733
0.0491117
0.0514364
0.053848
0.0563469
0.0589327
0.0616044
0.0643602
0.0671981
0.0701152
0.0731082
0.0761729
0.0793049
0.082499
0.0857497
0.0890508
0.092396
0.0957784
0.0991909
0.102626
0.106077
0.109535
0.112994
0.116445
0.11988
0.123293
0.126675
0.13002
0.13332
0.136568
0.139759
0.142885
0.145941
0.14892
0.151819
0.15463
0.157351
0.159976
0.162501
0.164924
0.16724
0.169448
0.171543
0.173524
0.17539
0.177138
0.178768
0.180278
0.181667
0.182936
0.184084
0.185112
0.186019
0.186807
0.187477
0.188029
0.188465
0.188787
0.188997
0.189096
0.189088
0.188977
0.188757
0.188435
0.188015
0.187499
0.186891
0.186193
0.185409
0.184541
0.183593
0.182568
0.181469
0.1803
0.179063
0.177763
0.176402
0.174984
0.173513
0.17199
0.17042
0.168805
0.16715
0.165456
0.163726
0.161965
0.160174
0.158356
0.156514
0.154651
0.152768
0.15087
0.148957
0.147032
0.145098
0.143156
0.141209
0.139258
0.137305
0.135353
0.133402
0.131454
0.129512
0.127575
0.125646
0.123726
0.121816
0.119917
0.118031
0.116157
0.114298
0.112454
0.110625
0.108812
0.107017
0.10524
0.10348
0.10174
0.100019
0.098317
0.0966353
0.0949741
0.0933334
0.0917137
0.090115
0.0885377
0.0869818
0.0854475
0.083935
0.0824442
0.0809752
0.0795282
0.078103
0.0766998
0.0753185
0.073959
0.0726215
0.0713057
0.0700117
0.0687395
0.0674891
0.0662603
0.0650533
0.0638681
0.0627047
0.0615634
0.0604443
0.0593478
0.0582743
0.0572245
0.0561992
0.0551998
0.0542275
0.0532844
0.0523723
0.0514938
0.0506466
0.0498022
0.00219551
0.00939842
0.0129299
0.0152858
0.0171652
0.0188029
0.0203069
0.0217388
0.0231386
0.024534
0.0259447
0.027388
0.0288773
0.0304229
0.032033
0.0337145
0.0354724
0.0373112
0.0392346
0.0412456
0.0433469
0.0455406
0.0478285
0.0502118
0.0526916
0.0552681
0.0579408
0.0607084
0.0635688
0.0665194
0.0695566
0.0726763
0.0758737
0.0791434
0.0824792
0.0858747
0.089323
0.0928166
0.096348
0.0999093
0.103492
0.107089
0.110692
0.114292
0.117881
0.121452
0.124996
0.128507
0.131976
0.135397
0.138763
0.142067
0.145303
0.148466
0.151549
0.154548
0.157458
0.160274
0.162993
0.165609
0.168121
0.170525
0.172818
0.174998
0.177063
0.179011
0.18084
0.18255
0.184139
0.185608
0.186954
0.18818
0.189284
0.190267
0.191129
0.191872
0.192497
0.193005
0.193398
0.193676
0.193843
0.193899
0.193852
0.193699
0.193437
0.193075
0.192615
0.192061
0.191414
0.190678
0.189856
0.188951
0.187966
0.186904
0.185769
0.184564
0.183291
0.181955
0.180558
0.179104
0.177595
0.176036
0.174429
0.172777
0.171084
0.169352
0.167584
0.165784
0.163954
0.162096
0.160214
0.158311
0.156387
0.154447
0.152492
0.150526
0.148549
0.146564
0.144573
0.142579
0.140582
0.138585
0.136589
0.134597
0.132609
0.130627
0.128653
0.126688
0.124732
0.122787
0.120855
0.118936
0.117031
0.115141
0.113266
0.111409
0.109568
0.107746
0.105942
0.104157
0.102391
0.100645
0.0989203
0.0972157
0.0955322
0.0938699
0.0922292
0.0906102
0.0890131
0.087438
0.0858851
0.0843545
0.0828462
0.0813602
0.0798967
0.0784556
0.077037
0.0756407
0.0742668
0.0729153
0.0715862
0.0702793
0.0689947
0.0677324
0.0664925
0.0652748
0.0640796
0.0629071
0.0617574
0.0606308
0.0595279
0.0584493
0.0573958
0.0563686
0.055369
0.0543987
0.0534593
0.0525529
0.051677
0.050809
0.00210422
0.00917576
0.0126443
0.0149764
0.0168517
0.0184994
0.0200255
0.0214903
0.0229331
0.0243817
0.0258573
0.0273754
0.0289442
0.0305769
0.0322833
0.0340714
0.0359483
0.0379191
0.0399874
0.0421563
0.0444283
0.0468049
0.0492874
0.0518762
0.0545711
0.0573709
0.0602734
0.0632757
0.0663737
0.0695628
0.0728376
0.0761917
0.0796185
0.0831107
0.0866606
0.0902601
0.093901