/*--------------------------------*- C++ -*----------------------------------*\
  =========                 |
  \\      /  F ield         | OpenFOAM: The Open Source CFD Toolbox
   \\    /   O peration     | Website:  https://openfoam.org
    \\  /    A nd           | Version:  7
     \\/     M anipulation  |
\*---------------------------------------------------------------------------*/
FoamFile
{
    version     2.0;
    format      ascii;
    class       volScalarField;
    location    "234";
    object      nut;
}
// * * * * * * * * * * * * * * * * * * * * * * * * * * * * * * * * * * * * * //

dimensions      [0 2 -1 0 0 0 0];

internalField   nonuniform List<scalar> 
12225
(
2.66869e-05
1.33563e-05
1.14698e-05
1.06186e-05
1.00235e-05
9.52794e-06
9.0948e-06
8.70983e-06
8.36477e-06
8.05402e-06
7.77332e-06
7.5193e-06
7.28933e-06
7.08147e-06
6.89494e-06
6.7316e-06
6.58829e-06
6.57782e-06
0.000154686
0.0001167
0.000110639
0.00010666
0.000103545
0.000100806
9.83214e-05
9.60424e-05
9.39413e-05
9.19994e-05
9.02024e-05
8.85393e-05
8.70023e-05
8.55859e-05
8.43013e-05
8.31209e-05
8.23478e-05
8.13326e-05
0.000330884
0.000254482
0.000238611
0.000230173
0.000223864
0.000218363
0.00021334
0.000208679
0.00020433
0.000200262
0.000196456
0.000192896
0.000189574
0.000186486
0.000183659
0.000181071
0.000179245
0.000176905
0.000496384
0.000391468
0.00036305
0.000349793
0.000340472
0.000332583
0.000325457
0.00031886
0.000312694
0.000306908
0.000301471
0.000296366
0.000291583
0.000287116
0.000282996
0.000279229
0.000276275
0.000273171
0.000628828
0.000515815
0.000479266
0.000460364
0.000448441
0.000438586
0.000429807
0.000421724
0.000414173
0.000407082
0.000400407
0.000394126
0.000388223
0.000382693
0.00037756
0.000372849
0.000368884
0.000365077
0.000725427
0.000622345
0.000583628
0.000560825
0.000546503
0.000535107
0.00052508
0.0005159
0.000507344
0.000499306
0.000491731
0.000484588
0.000477859
0.000471536
0.000465636
0.000460193
0.000455406
0.000450924
0.000790595
0.000709489
0.000673204
0.00065076
0.000633995
0.000621673
0.000610832
0.000600932
0.00059171
0.00058304
0.000574855
0.000567123
0.000559822
0.000552943
0.000546495
0.000540512
0.000535107
0.000530049
0.000830777
0.000777989
0.000746319
0.000728534
0.000710665
0.000697935
0.000686786
0.000676572
0.000667028
0.000658028
0.000649507
0.000641437
0.000633797
0.000626576
0.000619782
0.000613443
0.00060762
0.000602133
0.000853125
0.000827458
0.000804932
0.000790823
0.000776502
0.000763405
0.000752613
0.000742562
0.000733077
0.000724067
0.000715488
0.000707333
0.000699582
0.000692231
0.000685288
0.000678776
0.000672725
0.000666981
0.000863393
0.000860074
0.000848896
0.000838107
0.000829509
0.000817628
0.000807908
0.000798563
0.00078957
0.000780907
0.000772574
0.000764606
0.000756988
0.000749727
0.000742836
0.000736341
0.000730252
0.000724432
0.000866016
0.000878383
0.000878149
0.000873132
0.000868517
0.000860035
0.000851692
0.000843817
0.000835938
0.000828133
0.00082047
0.000812999
0.000805782
0.000798849
0.000792229
0.000785952
0.000780022
0.000774315
0.000864414
0.000885118
0.00089244
0.000893418
0.0008922
0.000887882
0.000881647
0.000875466
0.000868852
0.000862108
0.000855392
0.00084874
0.000842218
0.000835881
0.000829774
0.000823909
0.000818317
0.000812894
0.000862641
0.000884222
0.000897645
0.000904098
0.000906325
0.000905493
0.000902887
0.000898728
0.000893798
0.000888405
0.000882766
0.000877031
0.000871306
0.000865668
0.000860178
0.000854912
0.000849873
0.000844933
0.000861196
0.000877716
0.000893989
0.000905321
0.000910799
0.000913729
0.000915587
0.000914087
0.000911466
0.000908061
0.000904138
0.000899896
0.000895479
0.000890998
0.000886533
0.000882139
0.000877858
0.000873584
0.000857331
0.000870065
0.000884176
0.000895822
0.000904333
0.000911135
0.000915838
0.000917676
0.000918002
0.000917216
0.000915626
0.000913467
0.000910918
0.000908115
0.000905161
0.000902135
0.000899095
0.000895947
0.000854358
0.000861254
0.000870383
0.000879997
0.000888789
0.000896507
0.000902887
0.0009076
0.000910876
0.000912988
0.000914165
0.000914604
0.000914467
0.000913891
0.000912983
0.000911832
0.000910512
0.000908945
0.0008523
0.000854201
0.000858002
0.000863269
0.000869298
0.000875583
0.000881759
0.000887487
0.000892585
0.000896967
0.000900642
0.000903658
0.000906079
0.000907975
0.000909415
0.000910465
0.000911194
0.000911536
0.000851228
0.000850444
0.000851052
0.000853072
0.000856291
0.000860438
0.000865228
0.000870367
0.000875592
0.000880693
0.00088552
0.000889975
0.000894004
0.000897584
0.000900715
0.000903416
0.000905721
0.000907651
0.000851525
0.000851385
0.000852706
0.000855415
0.000859214
0.000863788
0.000868832
0.000874047
0.000879192
0.000884095
0.000888643
0.00089277
0.000896445
0.000899666
0.000902443
0.000904802
0.000906764
0.0009084
0.000853599
0.000858524
0.000865666
0.000873685
0.000881647
0.000889079
0.00089562
0.000900958
0.000905132
0.000908263
0.000910497
0.00091198
0.000912845
0.000913207
0.000913163
0.000912793
0.000912157
0.000911388
0.000857231
0.000869158
0.00088339
0.000894603
0.0009034
0.000910456
0.000915274
0.0009174
0.000918004
0.00091747
0.000916097
0.00091412
0.00091172
0.000909034
0.000906162
0.000903179
0.000900143
0.000897164
0.000862714
0.000878558
0.000896218
0.000905258
0.000909776
0.000910829
0.000910541
0.000907749
0.000903994
0.000899614
0.000894818
0.000889807
0.000884713
0.000879625
0.000874599
0.000869677
0.000864893
0.000860332
0.00086465
0.000882965
0.000888715
0.000887955
0.00088589
0.000880609
0.000873121
0.00086632
0.000859247
0.00085212
0.000845198
0.000838452
0.000831874
0.000825481
0.000819292
0.000813322
0.000807589
0.000802145
0.000862602
0.000858979
0.000847783
0.000836196
0.000827762
0.000815889
0.000806363
0.00079732
0.000788605
0.00078018
0.000771977
0.00076404
0.000756411
0.000749111
0.000742141
0.000735497
0.000729181
0.000723234
0.00084018
0.000798207
0.000769606
0.00075375
0.000736731
0.000723755
0.00071266
0.000702422
0.000692836
0.000683785
0.000675178
0.000667019
0.000659285
0.000651944
0.00064497
0.00063835
0.00063208
0.00062621
0.000780033
0.00069481
0.000658716
0.00063523
0.000618294
0.000605923
0.000595195
0.00058541
0.000576296
0.000567738
0.000559654
0.000552015
0.000544795
0.000537964
0.000531505
0.000525393
0.000519614
0.000514235
0.000661796
0.000551314
0.000513471
0.000491447
0.00047869
0.000468292
0.000459135
0.000450761
0.00044297
0.000435654
0.000428754
0.00042224
0.000416092
0.000410286
0.000404805
0.000399626
0.000394736
0.000390218
0.000476676
0.000372809
0.000345027
0.000332027
0.000323127
0.000315646
0.000308894
0.000302653
0.000296829
0.000291367
0.000286233
0.000281404
0.000276862
0.000272589
0.000268569
0.00026478
0.00026121
0.000257945
0.000245014
0.000182903
0.000171339
0.000164929
0.000160116
0.000155938
0.000152133
0.000148628
0.000145384
0.000142374
0.000139574
0.000136968
0.00013454
0.000132275
0.000130163
0.000128186
0.000126333
0.000124663
5.50642e-05
3.28705e-05
2.82516e-05
2.60898e-05
2.46009e-05
2.33822e-05
2.23146e-05
2.1358e-05
2.04929e-05
1.97066e-05
1.89897e-05
1.83343e-05
1.77339e-05
1.71832e-05
1.66765e-05
1.62121e-05
1.57776e-05
1.53908e-05
1.01344e-08
3.43277e-07
6.93363e-07
1.00692e-06
1.26327e-06
1.47705e-06
1.70333e-06
1.93763e-06
2.19018e-06
2.47207e-06
2.79196e-06
3.15673e-06
3.57311e-06
4.05064e-06
4.60081e-06
5.23502e-06
5.96204e-06
6.78531e-06
7.70069e-06
8.70189e-06
9.78099e-06
1.093e-05
1.21405e-05
1.3404e-05
1.47122e-05
1.60568e-05
1.74319e-05
1.88324e-05
2.02539e-05
2.1693e-05
2.31464e-05
2.46115e-05
2.60859e-05
2.75677e-05
2.90548e-05
3.05457e-05
3.20383e-05
3.35314e-05
3.50231e-05
3.6512e-05
3.79962e-05
3.94743e-05
4.09443e-05
4.24046e-05
4.38531e-05
4.5288e-05
4.67071e-05
4.81086e-05
4.94899e-05
5.08491e-05
5.2184e-05
5.34926e-05
5.47734e-05
5.60257e-05
5.72503e-05
5.84514e-05
5.96134e-05
6.07399e-05
6.18282e-05
6.28773e-05
6.38855e-05
6.48511e-05
6.57727e-05
6.66487e-05
6.74778e-05
6.82586e-05
6.89902e-05
6.96712e-05
7.0301e-05
7.08785e-05
7.14033e-05
7.18746e-05
7.22924e-05
7.2656e-05
7.29657e-05
7.32212e-05
7.3423e-05
7.3571e-05
7.3666e-05
7.37078e-05
7.36973e-05
7.36272e-05
7.35109e-05
7.33533e-05
7.31445e-05
7.28867e-05
7.25827e-05
7.22335e-05
7.18408e-05
7.14059e-05
7.09302e-05
7.04156e-05
6.98638e-05
6.92764e-05
6.8655e-05
6.80015e-05
6.73174e-05
6.66046e-05
6.58647e-05
6.50996e-05
6.43109e-05
6.35004e-05
6.26697e-05
6.18207e-05
6.09548e-05
6.00735e-05
5.91794e-05
5.82741e-05
5.73579e-05
5.64322e-05
5.54985e-05
5.45585e-05
5.36135e-05
5.2665e-05
5.17141e-05
5.07622e-05
4.98103e-05
4.88595e-05
4.79109e-05
4.69656e-05
4.60243e-05
4.50882e-05
4.41578e-05
4.32341e-05
4.23178e-05
4.14096e-05
4.05102e-05
3.96201e-05
3.87398e-05
3.78702e-05
3.70114e-05
3.61641e-05
3.53285e-05
3.4505e-05
3.36939e-05
3.28955e-05
3.211e-05
3.13377e-05
3.05788e-05
2.98335e-05
2.91019e-05
2.83841e-05
2.768e-05
2.69899e-05
2.63136e-05
2.56512e-05
2.50027e-05
2.4368e-05
2.3747e-05
2.31397e-05
2.25461e-05
2.1966e-05
2.13994e-05
2.08461e-05
2.0306e-05
1.97789e-05
1.92646e-05
1.8763e-05
1.82739e-05
1.77973e-05
1.73328e-05
1.68802e-05
1.64393e-05
1.60098e-05
1.55914e-05
1.5184e-05
1.47872e-05
1.44006e-05
1.40239e-05
1.36568e-05
1.32982e-05
1.29488e-05
1.26083e-05
1.2274e-05
1.19469e-05
1.16187e-05
1.1308e-05
1.09543e-05
1.06817e-05
9.79901e-06
6.02399e-08
4.89543e-06
1.50422e-05
2.30291e-05
2.81144e-05
3.11702e-05
3.28732e-05
3.40378e-05
3.50861e-05
3.62025e-05
3.74536e-05
3.88634e-05
4.03932e-05
4.20485e-05
4.38569e-05
4.58576e-05
4.81046e-05
5.06666e-05
5.34793e-05
5.65189e-05
5.97552e-05
6.31891e-05
6.68331e-05
7.06691e-05
7.46782e-05
7.88414e-05
8.31402e-05
8.75571e-05
9.20751e-05
9.66789e-05
0.000101354
0.000106087
0.000110865
0.000115679
0.000120517
0.000125372
0.000130235
0.000135099
0.000139958
0.000144805
0.000149636
0.000154444
0.000159226
0.000163976
0.000168688
0.00017336
0.000177983
0.000182555
0.000187066
0.000191511
0.000195878
0.000200157
0.000204328
0.000208366
0.000212229
0.000215841
0.000219341
0.00022274
0.000226038
0.000229231
0.000232318
0.000235293
0.000238154
0.000240896
0.000243516
0.000246012
0.000248379
0.000250617
0.000252722
0.000254692
0.000256526
0.000258223
0.000259781
0.0002612
0.00026248
0.00026362
0.000264621
0.000265485
0.000266212
0.000266804
0.000267266
0.000267586
0.000267728
0.000267788
0.000267729
0.000267539
0.000267225
0.000266791
0.00026624
0.000265576
0.000264803
0.000263924
0.000262943
0.000261862
0.000260687
0.000259421
0.000258066
0.000256628
0.000255111
0.000253518
0.000251853
0.000250121
0.000248325
0.000246468
0.000244555
0.000242588
0.000240572
0.000238511
0.000236407
0.000234263
0.000232083
0.00022987
0.000227629
0.000225361
0.00022307
0.00022076
0.000218432
0.000216089
0.000213733
0.000211368
0.000208995
0.000206616
0.000204234
0.00020185
0.000199467
0.000197086
0.000194708
0.000192336
0.000189971
0.000187614
0.000185266
0.000182929
0.000180603
0.00017829
0.000175991
0.000173706
0.000171437
0.000169185
0.00016695
0.000164733
0.000162534
0.000160354
0.000158194
0.000156054
0.000153933
0.000151834
0.000149754
0.000147696
0.000145659
0.000143644
0.00014165
0.000139678
0.000137729
0.000135801
0.000133896
0.000132012
0.00013015
0.000128309
0.000126491
0.000124693
0.000122917
0.000121162
0.000119427
0.000117714
0.000116021
0.000114348
0.000112694
0.000111058
0.000109439
0.000107834
0.000106245
0.00010465
0.000103015
0.000101352
9.96349e-05
9.78659e-05
9.59405e-05
9.37086e-05
9.12969e-05
8.39257e-05
1.42189e-07
1.01938e-05
2.87086e-05
4.36887e-05
5.43167e-05
6.16743e-05
6.67708e-05
7.04907e-05
7.34894e-05
7.61928e-05
7.88471e-05
8.15787e-05
8.45188e-05
8.77509e-05
9.1327e-05
9.52756e-05
9.95908e-05
0.00010422
0.000109233
0.000114649
0.000120481
0.000126697
0.000133222
0.000140019
0.000147055
0.000154297
0.000161715
0.00016928
0.000176963
0.00018474
0.000192589
0.000200488
0.000208422
0.000216374
0.000224332
0.000232283
0.000240218
0.000248127
0.000256003
0.000263838
0.000271626
0.00027936
0.000287033
0.00029464
0.000302172
0.000309625
0.000316988
0.000324255
0.000331415
0.000338457
0.000345369
0.000352136
0.000358742
0.00036517
0.000371394
0.000377423
0.000383288
0.000388997
0.000394545
0.00039993
0.000405144
0.000410184
0.000415044
0.000419719
0.000424204
0.000428494
0.000432586
0.000436476
0.00044016
0.000443637
0.000446902
0.000449956
0.000452795
0.00045542
0.000457829
0.000460023
0.000462001
0.000463766
0.000465319
0.000466661
0.000467795
0.000468745
0.000469389
0.000469876
0.000470198
0.000470315
0.000470235
0.000469965
0.000469509
0.000468871
0.000468057
0.000467072
0.00046592
0.000464607
0.000463138
0.000461517
0.000459747
0.000457838
0.000455794
0.000453622
0.000451326
0.000448913
0.000446386
0.000443753
0.000441018
0.000438185
0.00043526
0.000432248
0.000429154
0.000425984
0.000422742
0.000419434
0.000416065
0.00041264
0.000409162
0.000405638
0.00040207
0.000398463
0.00039482
0.000391146
0.000387444
0.000383717
0.000379969
0.000376202
0.00037242
0.000368626
0.000364822
0.000361011
0.000357195
0.000353376
0.000349557
0.00034574
0.000341925
0.000338115
0.000334312
0.000330519
0.000326735
0.000322963
0.000319204
0.000315459
0.00031173
0.000308017
0.000304321
0.000300643
0.000296983
0.000293343
0.000289722
0.000286122
0.000282543
0.000278986
0.000275453
0.000271943
0.000268456
0.000264992
0.000261551
0.000258134
0.000254741
0.000251372
0.000248028
0.000244707
0.00024141
0.000238137
0.000234888
0.000231662
0.000228458
0.000225277
0.000222116
0.000218974
0.000215849
0.000212737
0.000209637
0.000206535
0.0002034
0.000200223
0.000196965
0.000193628
0.000190074
0.000186216
0.00018205
0.00017137
2.48247e-07
1.49448e-05
3.98486e-05
6.00145e-05
7.45968e-05
8.50099e-05
9.25902e-05
9.84051e-05
0.00010325
0.000107679
0.000112051
0.000116587
0.000121427
0.000126654
0.000132314
0.000138429
0.000145004
0.000152034
0.000159523
0.00016746
0.000175819
0.000184553
0.000193621
0.000202975
0.000212574
0.00022238
0.000232354
0.000242465
0.000252682
0.000262977
0.000273326
0.000283709
0.000294106
0.000304502
0.000314882
0.000325235
0.000335549
0.000345817
0.000356028
0.000366174
0.000376249
0.000386244
0.000396152
0.000405966
0.000415677
0.000425279
0.000434761
0.000444114
0.000453328
0.00046239
0.000471289
0.000480011
0.00048854
0.000496862
0.000504976
0.000512889
0.000520608
0.000528132
0.000535458
0.000542577
0.000549486
0.000556176
0.000562641
0.000568876
0.000574874
0.000580631
0.000586141
0.0005914
0.000596403
0.000601148
0.00060563
0.000609848
0.0006138
0.000617484
0.000620899
0.000624044
0.000626921
0.000629529
0.00063187
0.000633947
0.000635791
0.000637342
0.000638553
0.000639558
0.00064034
0.000640866
0.000641141
0.000641173
0.000640966
0.000640526
0.000639858
0.000638967
0.00063786
0.000636543
0.000635022
0.000633309
0.000631412
0.000629331
0.000627071
0.000624637
0.000622036
0.000619274
0.000616358
0.000613293
0.000610086
0.000606744
0.00060327
0.000599673
0.000595958
0.000592131
0.000588199
0.000584168
0.000580044
0.000575834
0.000571542
0.000567175
0.000562738
0.000558236
0.000553673
0.000549056
0.000544387
0.000539673
0.000534916
0.000530122
0.000525295
0.000520437
0.000515553
0.000510647
0.000505721
0.000500778
0.000495823
0.000490856
0.00048588
0.000480898
0.000475915
0.000470931
0.000465949
0.000460972
0.000456001
0.000451037
0.000446083
0.00044114
0.00043621
0.000431294
0.000426393
0.000421509
0.000416641
0.000411792
0.000406963
0.000402154
0.000397367
0.000392602
0.00038786
0.000383139
0.000378443
0.000373771
0.000369124
0.000364503
0.000359907
0.000355338
0.000350794
0.000346276
0.000341784
0.000337318
0.000332875
0.000328457
0.000324061
0.000319684
0.000315326
0.000310981
0.000306646
0.00030231
0.00029795
0.000293548
0.000289065
0.00028449
0.000279695
0.000274611
0.000269282
0.000257508
3.6318e-07
1.89286e-05
4.91874e-05
7.37581e-05
9.19889e-05
0.000105358
0.000115404
0.000123341
0.00013008
0.000136275
0.000142363
0.000148629
0.000155242
0.000162298
0.000169848
0.000177908
0.000186479
0.000195547
0.000205092
0.000215083
0.000225485
0.000236229
0.000247301
0.000258647
0.000270221
0.000281981
0.00029389
0.000305914
0.000318022
0.000330188
0.000342388
0.000354601
0.000366811
0.000378999
0.000391149
0.000403252
0.000415299
0.000427279
0.000439183
0.000451002
0.000462729
0.000474355
0.000485873
0.000497275
0.000508555
0.000519704
0.000530713
0.000541575
0.000552279
0.000562816
0.000573173
0.000583336
0.000593293
0.00060304
0.000612577
0.000621902
0.000631013
0.000639906
0.000648575
0.000657013
0.000665214
0.00067317
0.000680874
0.00068832
0.000695501
0.000702413
0.000709048
0.000715402
0.000721471
0.00072725
0.000732736
0.000737925
0.000742816
0.000747406
0.000751693
0.000755678
0.000759358
0.000762735
0.000765809
0.000768603
0.000771109
0.000773267
0.000775078
0.000776643
0.000777939
0.000778943
0.000779661
0.000780097
0.000780258
0.000780147
0.000779771
0.000779135
0.000778245
0.000777107
0.000775728
0.000774114
0.000772269
0.000770202
0.000767919
0.000765428
0.000762735
0.000759847
0.000756771
0.000753513
0.000750082
0.000746482
0.000742722
0.000738807
0.000734744
0.00073054
0.000726203
0.000721739
0.000717154
0.000712457
0.000707652
0.000702748
0.000697748
0.00069266
0.00068749
0.000682242
0.000676923
0.000671537
0.00066609
0.000660587
0.000655031
0.000649429
0.000643784
0.000638101
0.000632383
0.000626634
0.000620859
0.000615062
0.000609253
0.000603428
0.00059759
0.00059174
0.000585883
0.00058002
0.000574154
0.000568287
0.000562422
0.00055656
0.000550705
0.000544857
0.000539019
0.000533191
0.000527377
0.000521577
0.000515792
0.000510025
0.000504276
0.000498548
0.000492838
0.000487149
0.000481483
0.000475841
0.000470224
0.000464631
0.000459065
0.000453523
0.000448009
0.000442521
0.00043706
0.000431625
0.000426217
0.000420834
0.000415475
0.000410137
0.000404819
0.000399516
0.000394223
0.000388932
0.000383624
0.000378282
0.000372871
0.00036737
0.000361676
0.000355706
0.00034972
0.000337414
4.7179e-07
2.21582e-05
5.67818e-05
8.5194e-05
0.000106851
0.000123128
0.000135669
0.000145783
0.000154461
0.000162428
0.000170188
0.000178074
0.000186292
0.000194958
0.000204129
0.000213823
0.000224034
0.000234746
0.000245917
0.000257494
0.000269422
0.000281729
0.000294326
0.000307168
0.00032021
0.000333411
0.000346734
0.000360147
0.000373618
0.000387119
0.00040063
0.000414137
0.000427624
0.000441081
0.00045451
0.000467878
0.000481169
0.00049437
0.000507471
0.000520465
0.000533343
0.000546096
0.000558718
0.000571199
0.000583537
0.000595725
0.000607757
0.000619626
0.000631323
0.000642842
0.000654176
0.000665321
0.000676274
0.000687027
0.00069757
0.000707896
0.000718001
0.000727877
0.000737519
0.000746919
0.000756069
0.000764962
0.000773592
0.00078195
0.000790031
0.000797828
0.000805336
0.000812547
0.000819459
0.000826065
0.000832362
0.000838347
0.000844015
0.000849365
0.000854394
0.0008591
0.000863484
0.000867544
0.000871281
0.000874734
0.000877833
0.000880592
0.000882988
0.000885112
0.000886934
0.000888441
0.000889637
0.000890528
0.000891117
0.000891409
0.00089141
0.000891125
0.000890559
0.000889719
0.000888611
0.00088724
0.000885613
0.000883736
0.000881616
0.000879261
0.000876677
0.000873871
0.00087085
0.000867621
0.000864191
0.000860567
0.000856757
0.000852766
0.000848602
0.000844272
0.000839783
0.000835143
0.000830358
0.000825436
0.000820384
0.000815208
0.000809915
0.000804512
0.000799004
0.000793398
0.0007877
0.000781915
0.00077605
0.000770109
0.000764099
0.000758024
0.000751889
0.000745699
0.000739459
0.000733173
0.000726845
0.00072048
0.000714081
0.000707653
0.0007012
0.000694725
0.000688231
0.000681722
0.0006752
0.000668669
0.000662131
0.00065559
0.000649046
0.000642504
0.000635964
0.000629431
0.000622904
0.000616387
0.000609881
0.000603388
0.000596909
0.000590447
0.000584009
0.00057759
0.000571191
0.000564814
0.00055846
0.000552128
0.000545822
0.000539539
0.000533283
0.000527052
0.000520849
0.000514672
0.00050852
0.000502394
0.000496294
0.000490219
0.000484165
0.000478129
0.000472107
0.00046609
0.000460063
0.000454012
0.00044791
0.00044173
0.000435396
0.000428819
0.000422293
0.000410177
5.6444e-07
2.46254e-05
6.26795e-05
9.44026e-05
0.000119211
0.000138297
0.000153323
0.000165635
0.000176271
0.000186002
0.00019538
0.000204781
0.000214442
0.000224504
0.000235045
0.000246076
0.000257574
0.000269497
0.000281843
0.000294612
0.000307789
0.000321264
0.000334984
0.00034891
0.000363004
0.000377226
0.000391542
0.00040592
0.000420337
0.000434791
0.000449254
0.000463688
0.000478069
0.00049237
0.000506576
0.000520689
0.000534704
0.000548615
0.000562414
0.000576097
0.000589658
0.000603092
0.000616395
0.000629562
0.000642586
0.000655459
0.000668176
0.000680729
0.000693115
0.000705325
0.000717356
0.000729201
0.000740854
0.000752308
0.000763555
0.00077459
0.000785403
0.000795989
0.00080634
0.000816448
0.000826306
0.000835906
0.000845239
0.0008543
0.000863081
0.000871574
0.000879775
0.000887676
0.000895272
0.000902558
0.000909529
0.000916181
0.00092251
0.000928512
0.000934185
0.000939527
0.000944536
0.000949209
0.000953562
0.000957602
0.000961267
0.0009646
0.000967564
0.000970236
0.000972582
0.0009746
0.000976291
0.00097766
0.000978711
0.000979448
0.000979876
0.00098
0.000979825
0.000979356
0.0009786
0.000977561
0.000976247
0.000974663
0.000972816
0.000970712
0.000968359
0.000965762
0.00096293
0.000959869
0.000956586
0.000953088
0.000949382
0.000945474
0.000941373
0.000937085
0.000932617
0.000927976
0.000923171
0.000918207
0.000913093
0.000907834
0.000902439
0.000896914
0.000891264
0.000885498
0.000879621
0.000873639
0.000867558
0.000861385
0.000855124
0.000848782
0.000842364
0.000835875
0.00082932
0.000822704
0.000816033
0.000809309
0.000802539
0.000795726
0.000788875
0.00078199
0.000775075
0.000768133
0.000761168
0.000754183
0.000747182
0.000740167
0.000733142
0.00072611
0.000719073
0.000712034
0.000704995
0.00069796
0.000690929
0.000683906
0.000676892
0.000669889
0.000662899
0.000655925
0.000648968
0.000642029
0.000635111
0.000628214
0.000621339
0.000614488
0.000607661
0.00060086
0.000594085
0.000587336
0.000580619
0.000573929
0.000567266
0.000560628
0.000554014
0.000547421
0.000540845
0.000534281
0.000527717
0.000521141
0.000514533
0.000507865
0.000501084
0.000494106
0.000487143
0.000475615
6.36408e-07
2.6381e-05
6.69849e-05
0.00010159
0.000129108
0.00015084
0.000168275
0.000182754
0.000195328
0.000206792
0.000217728
0.000228549
0.000239513
0.000250752
0.000262326
0.000274316
0.000286775
0.000299717
0.000313091
0.000326826
0.000340855
0.000355138
0.000369631
0.000384295
0.000399092
0.000413986
0.000428945
0.00044395
0.000458994
0.000474005
0.000488956
0.000503844
0.000518659
0.000533395
0.000548038
0.000562578
0.000577011
0.00059133
0.000605533
0.000619614
0.000633572
0.000647402
0.000661102
0.000674666
0.000688092
0.000701375
0.000714508
0.000727489
0.000740311
0.00075297
0.000765459
0.000777773
0.000789905
0.000801847
0.000813594
0.000825136
0.000836467
0.000847578
0.000858462
0.000869109
0.000879512
0.000889663
0.000899554
0.000909177
0.000918524
0.000927588
0.000936361
0.000944838
0.000953012
0.000960878
0.000968429
0.000975661
0.000982569
0.00098915
0.000995399
0.00100131
0.00100689
0.00101213
0.00101705
0.00102163
0.00102585
0.00102972
0.00103324
0.00103644
0.00103931
0.00104184
0.00104403
0.00104589
0.00104742
0.00104862
0.0010495
0.00105007
0.00105032
0.00105027
0.00104992
0.00104927
0.00104833
0.0010471
0.0010456
0.00104382
0.00104178
0.00103948
0.00103692
0.00103412
0.00103108
0.00102781
0.00102432
0.0010206
0.00101668
0.00101255
0.00100822
0.0010037
0.000999
0.000994124
0.000989079
0.000983873
0.000978512
0.000973004
0.000967355
0.000961572
0.000955661
0.000949629
0.000943482
0.000937226
0.000930867
0.000924411
0.000917864
0.00091123
0.000904517
0.000897728
0.00089087
0.000883946
0.000876963
0.000869924
0.000862834
0.000855698
0.00084852
0.000841304
0.000834054
0.000826774
0.000819467
0.000812138
0.000804789
0.000797424
0.000790046
0.000782658
0.000775262
0.000767863
0.000760461
0.000753061
0.000745663
0.000738272
0.000730888
0.000723515
0.000716154
0.000708807
0.000701477
0.000694164
0.000686871
0.000679598
0.000672348
0.000665121
0.00065792
0.000650743
0.000643593
0.00063647
0.000629374
0.000622305
0.000615262
0.000608244
0.000601248
0.00059427
0.000587306
0.000580344
0.000573368
0.000566357
0.00055927
0.000552039
0.000544769
0.000533908
6.86707e-07
2.75173e-05
6.98882e-05
0.000106826
0.0001367
0.00016084
0.000180541
0.000197097
0.000211549
0.000224692
0.00023708
0.0002491
0.000261068
0.00027325
0.00028581
0.00029878
0.000312138
0.000325855
0.000339901
0.000354242
0.000368835
0.000383637
0.000398607
0.000413708
0.000428901
0.000444156
0.000459455
0.000474788
0.000490068
0.000505283
0.000520431
0.000535501
0.000550482
0.000565368
0.000580151
0.000594827
0.000609392
0.000623845
0.000638184
0.000652407
0.000666513
0.000680502
0.000694371
0.000708119
0.000721742
0.000735238
0.000748602
0.00076183
0.000774918
0.000787861
0.000800651
0.000813283
0.00082575
0.000838044
0.000850157
0.000862081
0.000873807
0.000885327
0.000896632
0.000907712
0.000918559
0.000929164
0.000939519
0.000949614
0.000959442
0.000968995
0.000978264
0.000987243
0.000995926
0.0010043
0.00101237
0.00102013
0.00102756
0.00103467
0.00104145
0.00104789
0.001054
0.00105977
0.00106522
0.00107031
0.00107505
0.00107946
0.00108351
0.00108723
0.00109061
0.00109364
0.00109633
0.00109868
0.0011007
0.00110238
0.00110373
0.00110476
0.00110547
0.00110586
0.00110594
0.00110571
0.00110518
0.00110436
0.00110324
0.00110184
0.00110016
0.00109821
0.00109599
0.00109352
0.00109079
0.00108781
0.0010846
0.00108115
0.00107748
0.00107359
0.00106948
0.00106517
0.00106067
0.00105597
0.00105109
0.00104603
0.0010408
0.00103541
0.00102986
0.00102417
0.00101833
0.00101235
0.00100625
0.00100002
0.000993675
0.000987218
0.000980656
0.000973994
0.000967239
0.000960395
0.000953468
0.000946464
0.000939387
0.000932242
0.000925035
0.000917769
0.000910451
0.000903083
0.000895671
0.000888219
0.00088073
0.000873208
0.000865658
0.000858083
0.000850486
0.000842871
0.000835241
0.000827599
0.000819949
0.000812292
0.000804632
0.000796972
0.000789314
0.000781661
0.000774015
0.000766378
0.000758753
0.000751142
0.000743547
0.000735969
0.00072841
0.000720873
0.000713358
0.000705866
0.0006984
0.00069096
0.000683547
0.000676162
0.000668803
0.000661472
0.000654167
0.000646885
0.000639624
0.000632377
0.000625135
0.000617882
0.00061059
0.000603201
0.00059574
0.000585506
7.16633e-07
2.8127e-05
7.15725e-05
0.0001103
0.000142174
0.000168455
0.000190246
0.000208721
0.000224832
0.000239354
0.000252976
0.000266203
0.000279357
0.000292592
0.000306008
0.000319673
0.000333617
0.000347841
0.000362323
0.000377034
0.000391938
0.000406998
0.000422175
0.000437436
0.000452742
0.000468106
0.0004835
0.000498826
0.000514061
0.000529217
0.000544286
0.000559263
0.000574141
0.000588919
0.000603594
0.000618167
0.000632638
0.000647008
0.00066128
0.000675453
0.000689529
0.000703509
0.000717392
0.000731177
0.000744863
0.000758446
0.000771924
0.00078529
0.000798541
0.00081167
0.00082467
0.000837534
0.000850254
0.000862821
0.000875226
0.000887459
0.000899512
0.000911374
0.000923036
0.000934487
0.000945718
0.00095672
0.000967483
0.000977997
0.000988254
0.000998245
0.00100796
0.0010174
0.00102654
0.00103539
0.00104393
0.00105217
0.00106009
0.00106769
0.00107496
0.00108191
0.00108852
0.0010948
0.00110073
0.00110632
0.00111158
0.00111649
0.00112106
0.00112529
0.00112918
0.00113271
0.00113589
0.00113873
0.00114123
0.0011434
0.00114523
0.00114673
0.0011479
0.00114875
0.00114928
0.00114949
0.0011494
0.001149
0.0011483
0.00114731
0.00114603
0.00114447
0.00114263
0.00114052
0.00113814
0.00113551
0.00113263
0.0011295
0.00112613
0.00112254
0.00111871
0.00111468
0.00111042
0.00110597
0.00110132
0.00109648
0.00109145
0.00108625
0.00108088
0.00107535
0.00106966
0.00106382
0.00105784
0.00105172
0.00104547
0.0010391
0.00103261
0.00102601
0.0010193
0.00101249
0.00100558
0.000998587
0.000991508
0.00098435
0.000977118
0.000969817
0.000962452
0.000955028
0.000947549
0.00094002
0.000932445
0.000924828
0.000917173
0.000909484
0.000901765
0.00089402
0.000886252
0.000878465
0.000870662
0.000862845
0.00085502
0.000847187
0.00083935
0.000831513
0.000823677
0.000815846
0.000808021
0.000800206
0.000792402
0.000784613
0.000776839
0.000769083
0.000761347
0.000753632
0.000745941
0.000738275
0.000730635
0.000723023
0.000715439
0.000707884
0.000700358
0.00069286
0.00068539
0.000677945
0.00067052
0.000663105
0.000655681
0.000648203
0.00064064
0.000630954
7.2826e-07
2.83035e-05
7.22115e-05
0.000112218
0.000145746
0.000173768
0.000197195
0.000217241
0.000234919
0.00025103
0.000266096
0.000280532
0.000294641
0.000308649
0.000322701
0.000336878
0.000351224
0.000365749
0.000380445
0.00039529
0.000410258
0.000425317
0.000440424
0.000455597
0.000470862
0.000486103
0.000501243
0.000516265
0.000531193
0.000546025
0.000560761
0.000575401
0.000589948
0.000604403
0.000618771
0.000633057
0.000647265
0.000661399
0.000675465
0.000689464
0.000703399
0.000717272
0.000731083
0.00074483
0.000758511
0.000772123
0.00078566
0.000799118
0.000812488
0.000825764
0.000838937
0.000851998
0.000864938
0.000877745
0.00089041
0.000902923
0.000915271
0.000927445
0.000939433
0.000951224
0.000962809
0.000974176
0.000985315
0.000996216
0.00100687
0.00101727
0.0010274
0.00103726
0.00104684
0.00105612
0.00106511
0.0010738
0.00108218
0.00109024
0.00109799
0.00110541
0.0011125
0.00111925
0.00112566
0.00113174
0.00113748
0.00114289
0.00114795
0.00115269
0.00115707
0.00116109
0.00116476
0.00116808
0.00117107
0.00117372
0.00117603
0.001178
0.00117964
0.00118096
0.00118195
0.00118262
0.00118298
0.00118303
0.00118276
0.0011822
0.00118134
0.00118019
0.00117876
0.00117704
0.00117505
0.0011728
0.00117028
0.00116751
0.00116449
0.00116123
0.00115773
0.001154
0.00115006
0.00114589
0.00114152
0.00113694
0.00113218
0.00112722
0.00112208
0.00111677
0.00111129
0.00110564
0.00109985
0.0010939
0.00108781
0.00108159
0.00107523
0.00106876
0.00106216
0.00105545
0.00104864
0.00104172
0.00103472
0.00102762
0.00102043
0.00101317
0.00100583
0.000998426
0.000990956
0.000983425
0.00097584
0.000968204
0.000960521
0.000952796
0.000945033
0.000937235
0.000929407
0.000921552