/*--------------------------------*- C++ -*----------------------------------*\
  =========                 |
  \\      /  F ield         | OpenFOAM: The Open Source CFD Toolbox
   \\    /   O peration     | Website:  https://openfoam.org
    \\  /    A nd           | Version:  7
     \\/     M anipulation  |
\*---------------------------------------------------------------------------*/
FoamFile
{
    version     2.0;
    format      ascii;
    class       volScalarField;
    location    "234";
    object      p;
}
// * * * * * * * * * * * * * * * * * * * * * * * * * * * * * * * * * * * * * //

dimensions      [0 2 -2 0 0 0 0];

internalField   nonuniform List<scalar> 
12225
(
-0.366051
-0.306664
-0.245598
-0.197306
-0.160086
-0.132192
-0.110967
-0.0946134
-0.0819626
-0.0721537
-0.0645687
-0.0587787
-0.0544968
-0.0515778
-0.0500351
-0.0503108
-0.0535435
-0.0643151
-0.445813
-0.317389
-0.252419
-0.203383
-0.165501
-0.137065
-0.115334
-0.0985407
-0.0855166
-0.0753913
-0.0675406
-0.0615308
-0.0570721
-0.0540191
-0.05238
-0.0525482
-0.0551781
-0.0629048
-0.501463
-0.332466
-0.264503
-0.213736
-0.174613
-0.145252
-0.122672
-0.105142
-0.0914895
-0.080828
-0.0725231
-0.066131
-0.0613522
-0.058028
-0.0561273
-0.0558856
-0.0573595
-0.0607962
-0.517715
-0.345514
-0.276366
-0.223829
-0.183607
-0.153442
-0.130119
-0.111931
-0.0976993
-0.0865311
-0.0777846
-0.0710059
-0.0658799
-0.0622172
-0.0599129
-0.0589907
-0.0590603
-0.059546
-0.510204
-0.354667
-0.285455
-0.231925
-0.191081
-0.16042
-0.136604
-0.11795
-0.103286
-0.0917225
-0.0826149
-0.0755011
-0.0700479
-0.0660267
-0.0632524
-0.0615748
-0.0603861
-0.0591905
-0.489121
-0.359216
-0.291396
-0.238076
-0.197117
-0.166255
-0.142175
-0.123222
-0.108252
-0.0963866
-0.0869849
-0.0795784
-0.0738163
-0.0694317
-0.0661742
-0.0637855
-0.0615919
-0.0594211
-0.459249
-0.358495
-0.293982
-0.242229
-0.201788
-0.171011
-0.146889
-0.127794
-0.112628
-0.100541
-0.090902
-0.0832386
-0.0771856
-0.0724457
-0.0687251
-0.0657126
-0.0627563
-0.0600305
-0.423976
-0.352219
-0.293027
-0.244055
-0.204989
-0.174622
-0.150696
-0.131627
-0.116382
-0.104157
-0.0943374
-0.0864553
-0.0801366
-0.0750644
-0.0709239
-0.0673907
-0.0638844
-0.0608819
-0.386026
-0.340575
-0.288564
-0.243293
-0.206491
-0.177012
-0.153534
-0.134675
-0.119481
-0.107206
-0.0972687
-0.0892115
-0.0826608
-0.0772929
-0.0727909
-0.0688439
-0.0649641
-0.0618618
-0.347387
-0.324151
-0.280788
-0.23994
-0.206052
-0.178088
-0.155344
-0.136896
-0.121893
-0.109668
-0.0996819
-0.0914999
-0.08476
-0.0791438
-0.0743474
-0.0700883
-0.0659724
-0.0628753
-0.309285
-0.303938
-0.270019
-0.234191
-0.203653
-0.177766
-0.156092
-0.13825
-0.123588
-0.111521
-0.101564
-0.0933167
-0.0864389
-0.0806294
-0.0756084
-0.0711285
-0.0668725
-0.0638514
-0.275427
-0.282996
-0.257909
-0.227044
-0.199856
-0.176218
-0.15584
-0.138721
-0.124499
-0.112671
-0.10281
-0.094559
-0.0876049
-0.0816712
-0.0765058
-0.0718949
-0.0675645
-0.0646645
-0.244415
-0.260604
-0.244225
-0.218395
-0.19465
-0.173469
-0.154649
-0.138453
-0.1248
-0.113303
-0.103607
-0.0954078
-0.0884279
-0.0824206
-0.0771645
-0.0724743
-0.0681625
-0.0652708
-0.212134
-0.234642
-0.227318
-0.207156
-0.187306
-0.169005
-0.152171
-0.137267
-0.124415
-0.113406
-0.103984
-0.0959111
-0.0889612
-0.0829275
-0.0776245
-0.0728997
-0.0686498
-0.0657179
-0.179655
-0.206579
-0.207808
-0.19361
-0.177804
-0.162665
-0.148193
-0.134905
-0.123088
-0.112738
-0.103718
-0.0958684
-0.0890249
-0.0830303
-0.07774
-0.073036
-0.0688685
-0.0658844
-0.148957
-0.178753
-0.187338
-0.178889
-0.166912
-0.154907
-0.142907
-0.13134
-0.120683
-0.11111
-0.102597
-0.0950608
-0.0884007
-0.0825123
-0.0772928
-0.0726562
-0.0685792
-0.0655176
-0.123233
-0.154684
-0.168775
-0.165219
-0.156516
-0.147131
-0.137235
-0.12716
-0.11752
-0.108645
-0.100604
-0.0933723
-0.0869032
-0.0811347
-0.0759971
-0.0714273
-0.0674014
-0.0641645
-0.10822
-0.139717
-0.156577
-0.155976
-0.149251
-0.141381
-0.132734
-0.12356
-0.11451
-0.106021
-0.0982347
-0.0911669
-0.084801
-0.0791013
-0.0740178
-0.0694976
-0.0654999
-0.0620548
-0.113966
-0.143638
-0.159213
-0.157652
-0.150006
-0.141341
-0.132071
-0.122385
-0.112892
-0.104018
-0.0958961
-0.0885342
-0.0819065
-0.0759682
-0.0706599
-0.0659145
-0.06165
-0.0576815
-0.137731
-0.166701
-0.177572
-0.170979
-0.159645
-0.148156
-0.136643
-0.125293
-0.114612
-0.104881
-0.0961348
-0.0883205
-0.0813698
-0.0752065
-0.0697496
-0.0649187
-0.0606121
-0.0565558
-0.176836
-0.201387
-0.203631
-0.189566
-0.172978
-0.157389
-0.142578
-0.128768
-0.11632
-0.105309
-0.0956286
-0.0871369
-0.0796992
-0.073185
-0.0674752
-0.0624603
-0.0580162
-0.0538158
-0.22624
-0.242137
-0.232221
-0.209037
-0.186187
-0.165851
-0.147454
-0.131109
-0.116952
-0.104779
-0.0943053
-0.0852851
-0.0775047
-0.0707767
-0.0649427
-0.0598687
-0.05542
-0.0512768
-0.282847
-0.283729
-0.258202
-0.225337
-0.196108
-0.171092
-0.149548
-0.131247
-0.115847
-0.102874
-0.091898
-0.0825688
-0.0746059
-0.0677801
-0.0619046
-0.0568275
-0.0524086
-0.0483461
-0.343781
-0.320394
-0.277265
-0.235864
-0.201186
-0.172389
-0.148687
-0.129186
-0.113057
-0.0996496
-0.088435
-0.0789926
-0.0709961
-0.0641878
-0.0583618
-0.0533529
-0.0490209
-0.0450917
-0.404836
-0.346806
-0.287573
-0.239932
-0.201146
-0.170036
-0.145223
-0.125135
-0.108706
-0.0951766
-0.0839523
-0.0745713
-0.0666782
-0.0599958
-0.054306
-0.0494354
-0.0452458
-0.0414939
-0.460334
-0.359949
-0.288976
-0.237745
-0.196692
-0.164674
-0.139527
-0.119353
-0.102988
-0.0896108
-0.0785841
-0.0694215
-0.0617521
-0.0552895
-0.0498104
-0.0451382
-0.0411377
-0.0375979
-0.501537
-0.359461
-0.282179
-0.230109
-0.18875
-0.156813
-0.13192
-0.11208
-0.0960872
-0.0830909
-0.0724358
-0.063626
-0.0562865
-0.0501292
-0.0449309
-0.0405148
-0.0367489
-0.033456
-0.510922
-0.346741
-0.268695
-0.217871
-0.177632
-0.146527
-0.122397
-0.10329
-0.0879746
-0.075594
-0.0654957
-0.0571867
-0.0502965
-0.044542
-0.0397046
-0.0356116
-0.0321343
-0.0291299
-0.462663
-0.325601
-0.252355
-0.203332
-0.164866
-0.13502
-0.111975
-0.0938606
-0.0794212
-0.0678084
-0.0583847
-0.0506687
-0.0443005
-0.039007
-0.0345774
-0.0308464
-0.0276884
-0.0249789
-0.369077
-0.307751
-0.241606
-0.193595
-0.156237
-0.127212
-0.10489
-0.0874385
-0.0735825
-0.0624785
-0.0535002
-0.0461751
-0.0401507
-0.0351605
-0.031
-0.0275068
-0.0245591
-0.0220171
-0.0736009
-0.0735911
-0.0736887
-0.0739024
-0.0741898
-0.0745135
-0.0748596
-0.0752274
-0.0756165
-0.0760297
-0.0764731
-0.0769534
-0.0774764
-0.0780464
-0.0786689
-0.0793504
-0.0800981
-0.0809198
-0.081822
-0.0828097
-0.0838848
-0.0850473
-0.0862935
-0.0876165
-0.0890055
-0.0904462
-0.0919211
-0.0934107
-0.094893
-0.0963453
-0.0977436
-0.0990646
-0.100284
-0.101381
-0.102331
-0.103116
-0.103716
-0.104112
-0.104289
-0.104231
-0.103925
-0.103359
-0.102521
-0.101401
-0.0999916
-0.0982851
-0.0962754
-0.0939584
-0.0913305
-0.0883896
-0.0851349
-0.08157
-0.0777061
-0.0735568
-0.0691179
-0.0643626
-0.0592867
-0.0539114
-0.0482514
-0.0423194
-0.0361275
-0.0296875
-0.0230125
-0.016115
-0.00900951
-0.00170974
0.0057687
0.013411
0.0212006
0.029122
0.0371582
0.0452934
0.0535101
0.0617926
0.0701238
0.0784881
0.0868686
0.0952504
0.103617
0.111956
0.12025
0.128488
0.136655
0.144739
0.152728
0.160611
0.168377
0.176018
0.183523
0.190885
0.198097
0.205151
0.212042
0.218765
0.225314
0.231687
0.237879
0.243889
0.249714
0.255354
0.260807
0.266073
0.271153
0.276048
0.280758
0.285285
0.289636
0.293817
0.297826
0.301661
0.305326
0.308824
0.31216
0.315337
0.31836
0.321233
0.323961
0.326546
0.328995
0.331312
0.3335
0.335564
0.337509
0.339339
0.341059
0.342672
0.344182
0.345594
0.346912
0.34814
0.34928
0.350338
0.351316
0.352219
0.353048
0.353808
0.354502
0.355132
0.355702
0.356213
0.35667
0.357073
0.357426
0.357731
0.357991
0.358206
0.358379
0.358512
0.358607
0.358664
0.358687
0.358676
0.358632
0.358557
0.358451
0.358317
0.358156
0.357967
0.357753
0.357514
0.357251
0.356966
0.356659
0.356333
0.355988
0.355627
0.355253
0.354868
0.354478
0.354088
0.353708
0.353352
0.353034
0.352774
0.352611
0.352604
0.352873
0.353505
0.355173
0.357047
-0.0733356
-0.07338
-0.0734969
-0.0736917
-0.0739288
-0.0741735
-0.0744146
-0.0746585
-0.0749218
-0.0752181
-0.0755563
-0.0759372
-0.0763626
-0.0768412
-0.0773816
-0.0779927
-0.0786837
-0.0794625
-0.0803353
-0.081307
-0.0823802
-0.0835549
-0.0848262
-0.0861855
-0.0876198
-0.089113
-0.090646
-0.0921977
-0.0937451
-0.0952646
-0.0967318
-0.098123
-0.0994147
-0.100585
-0.101611
-0.102475
-0.103157
-0.10364
-0.103907
-0.103945
-0.103739
-0.103278
-0.102551
-0.101548
-0.100261
-0.0986832
-0.0968074
-0.0946297
-0.0921462
-0.0893545
-0.0862526
-0.0828399
-0.0791137
-0.0750679
-0.0707024
-0.0660373
-0.0610879
-0.0558544
-0.0503416
-0.0445577
-0.0385125
-0.0322164
-0.0256816
-0.0189202
-0.0119459
-0.00477228
0.00258577
0.0101134
0.0177949
0.0256146
0.033556
0.0416032
0.0497394
0.0579486
0.066214
0.0745198
0.0828495
0.0911879
0.0995193
0.107829
0.116103
0.124327
0.132487
0.14057
0.148566
0.156463
0.164249
0.171915
0.179451
0.18685
0.194104
0.201205
0.208148
0.214926
0.221536
0.227972
0.234231
0.240311
0.24621
0.251925
0.257456
0.262803
0.267965
0.272943
0.277739
0.282354
0.286784
0.291026
0.295089
0.298979
0.302701
0.306257
0.309652
0.312889
0.315971
0.318905
0.321692
0.324338
0.326847
0.329223
0.331471
0.333594
0.335597
0.337485
0.339261
0.34093
0.342496
0.343962
0.345333
0.346613
0.347804
0.348912
0.349939
0.350889
0.351765
0.352571
0.353309
0.353982
0.354593
0.355145
0.355641
0.356083
0.356473
0.356814
0.357108
0.357357
0.357563
0.357728
0.357853
0.35794
0.357991
0.358007
0.35799
0.35794
0.35786
0.35775
0.357611
0.357444
0.357252
0.357033
0.356791
0.356525
0.356237
0.355929
0.355602
0.355258
0.3549
0.354532
0.354158
0.353785
0.353422
0.353079
0.352775
0.352532
0.352389
0.352397
0.352671
0.353275
0.354799
0.356301
-0.0724226
-0.0726088
-0.0729
-0.0732025
-0.0734369
-0.0735999
-0.0737223
-0.0738378
-0.0739737
-0.0741495
-0.074379
-0.0746723
-0.0750384
-0.0754861
-0.0760237
-0.0766583
-0.0773949
-0.0782366
-0.0791851
-0.0802402
-0.0813988
-0.0826542
-0.0839964
-0.0854133
-0.0868901
-0.0884104
-0.0899557
-0.0915066
-0.0930424
-0.0945423
-0.095985
-0.0973498
-0.0986159
-0.0997636
-0.100774
-0.101628
-0.102309
-0.1028
-0.103087
-0.103155
-0.102991
-0.102583
-0.101919
-0.100991
-0.0997893
-0.0983059
-0.0965344
-0.0944696
-0.0921069
-0.0894434
-0.0864771
-0.0832072
-0.0796317
-0.0757472
-0.071554
-0.0670606
-0.0622768
-0.0572082
-0.0518616
-0.0462447
-0.0403665
-0.034237
-0.0278673
-0.0212692
-0.0144554
-0.00743922
-0.000234818
0.00714334
0.0146801
0.0223601
0.0301675
0.0380866
0.0461009
0.0541947
0.0623515
0.0705557
0.0787912
0.0870424
0.0952943
0.103532
0.111742
0.119909
0.128019
0.136061
0.144023
0.151892
0.159659
0.167312
0.174842
0.182242
0.189502
0.196616
0.203578
0.21038
0.217019
0.22349
0.229789
0.235912
0.241859
0.247626
0.253213
0.258618
0.263841
0.268883
0.273743
0.278423
0.282925
0.28725
0.291404
0.295387
0.299203
0.302853
0.306341
0.30967
0.312845
0.315869
0.318747
0.321482
0.324078
0.326541
0.328873
0.33108
0.333165
0.335133
0.336987
0.338733
0.340373
0.341913
0.343355
0.344704
0.345964
0.347137
0.348228
0.34924
0.350177
0.351041
0.351835
0.352563
0.353228
0.353832
0.354378
0.354867
0.355304
0.35569
0.356028
0.356319
0.356565
0.356769
0.356931
0.357055
0.357141
0.35719
0.357205
0.357187
0.357136
0.357055
0.356944
0.356804
0.356637
0.356443
0.356224
0.355981
0.355715
0.355428
0.355122
0.354798
0.35446
0.354111
0.353756
0.353401
0.353055
0.352729
0.352441
0.352212
0.35208
0.35209
0.352344
0.352856
0.354106
0.354967
-0.0709599
-0.0713075
-0.0718537
-0.07237
-0.0727196
-0.072939
-0.0730909
-0.0732215
-0.073366
-0.0735515
-0.0737984
-0.0741218
-0.0745329
-0.0750403
-0.0756501
-0.0763667
-0.0771923
-0.078127
-0.0791686
-0.0803124
-0.0815512
-0.0828757
-0.0842746
-0.0857348
-0.0872418
-0.0887799
-0.0903319
-0.0918801
-0.0934058
-0.0948904
-0.0963146
-0.0976598
-0.0989069
-0.100038
-0.101035
-0.101881
-0.10256
-0.103056
-0.103354
-0.10344
-0.103302
-0.102927
-0.102304
-0.101423
-0.100275
-0.0988518
-0.0971464
-0.0951528
-0.0928658
-0.0902816
-0.0873975
-0.0842116
-0.0807227
-0.0769305
-0.0728372
-0.0684482
-0.0637696
-0.0588072
-0.0535676
-0.0480584
-0.0422881
-0.0362663
-0.0300037
-0.0235116
-0.0168025
-0.00988914
-0.00278542
0.00449451
0.0119358
0.0195235
0.0272419
0.0350755
0.0430084
0.0510246
0.0591082
0.0672435
0.0754147
0.0836064
0.0918034
0.0999916
0.108156
0.116283
0.124359
0.132371
0.140308
0.148158
0.15591
0.163553
0.171078
0.178478
0.185742
0.192865
0.199839
0.206658
0.213318
0.219813
0.22614
0.232295
0.238277
0.244081
0.249708
0.255156
0.260425
0.265515
0.270427
0.275162
0.279723
0.284112
0.288331
0.29238
0.296263
0.29998
0.303536
0.306934
0.310177
0.313269
0.316215
0.319017
0.321681
0.32421
0.326608
0.328879
0.331029
0.33306
0.334977
0.336783
0.338484
0.340082
0.341582
0.342988
0.344303
0.34553
0.346674
0.347738
0.348724
0.349637
0.350479
0.351253
0.351963
0.35261
0.353198
0.353729
0.354206
0.354631
0.355006
0.355333
0.355614
0.355852
0.356047
0.356202
0.356319
0.356398
0.356441
0.35645
0.356426
0.356371
0.356284
0.356168
0.356024
0.355852
0.355654
0.355432
0.355186
0.354918
0.354629
0.354323
0.354001
0.353668
0.353328
0.352987
0.352653
0.352337
0.352055
0.351828
0.351687
0.351669
0.351854
0.352215
0.353114
0.353352
-0.0693497
-0.0698517
-0.0706932
-0.0714875
-0.072031
-0.0723932
-0.0726638
-0.0729003
-0.0731435
-0.0734254
-0.0737699
-0.0741942
-0.0747101
-0.0753256
-0.0760454
-0.0768715
-0.0778033
-0.0788386
-0.0799728
-0.0811994
-0.0825099
-0.0838939
-0.0853394
-0.0868334
-0.0883615
-0.089909
-0.0914598
-0.0929976
-0.0945056
-0.0959667
-0.0973636
-0.0986792
-0.0998961
-0.100998
-0.101968
-0.10279
-0.103448
-0.103928
-0.104216
-0.104298
-0.10416
-0.103792
-0.103182
-0.102319
-0.101195
-0.0998003
-0.0981284
-0.0961727
-0.0939277
-0.0913893
-0.0885543
-0.0854207
-0.0819872
-0.0782543
-0.0742238
-0.0698997
-0.0652868
-0.0603907
-0.0552179
-0.0497758
-0.0440727
-0.0381181
-0.0319224
-0.0254967
-0.0188533
-0.0120047
-0.00496461
0.00225306
0.0096337
0.0171624
0.0248238
0.0326025
0.0404827
0.0484487
0.0564847
0.064575
0.072704
0.0808564
0.0890173
0.0971726
0.105308
0.113407
0.121459
0.129452
0.137373
0.145209
0.152951
0.160588
0.16811
0.175509
0.182777
0.189906
0.19689
0.203722
0.210397
0.21691
0.223258
0.229437
0.235444
0.241277
0.246935
0.252416
0.257721
0.262849
0.2678
0.272576
0.277179
0.28161
0.285872
0.289965
0.293892
0.297655
0.301257
0.304702
0.307993
0.311134
0.314128
0.316979
0.319691
0.322268
0.324715
0.327034
0.329232
0.33131
0.333274
0.335127
0.336873
0.338517
0.340062
0.341511
0.342869
0.344139
0.345324
0.346429
0.347455
0.348407
0.349287
0.350099
0.350844
0.351527
0.35215
0.352714
0.353224
0.35368
0.354086
0.354443
0.354754
0.35502
0.355243
0.355424
0.355567
0.355671
0.355739
0.355771
0.35577
0.355736
0.35567
0.355575
0.35545
0.355297
0.355118
0.354913
0.354683
0.354431
0.354158
0.353866
0.353558
0.353237
0.352908
0.352576
0.352249
0.351936
0.351651
0.351412
0.351246
0.351177
0.351263
0.351448
0.351999
0.351722
-0.0680082
-0.0686399
-0.06975
-0.0708113
-0.0715656
-0.0721023
-0.0725279
-0.0729082
-0.0732882
-0.0737027
-0.0741776
-0.0747309
-0.0753743
-0.0761146
-0.0769551
-0.0778962
-0.0789356
-0.0800694
-0.0812914
-0.0825939
-0.0839676
-0.0854021
-0.0868856
-0.0884053
-0.0899478
-0.0914992
-0.0930446
-0.0945692
-0.0960574
-0.0974936
-0.0988618
-0.100146
-0.101331
-0.1024
-0.103338
-0.104131
-0.104763
-0.105219
-0.105487
-0.105552
-0.105403
-0.105027
-0.104412
-0.10355
-0.102429
-0.101041
-0.0993791
-0.0974364
-0.0952073
-0.0926874
-0.0898734
-0.086763
-0.0833553
-0.0796504
-0.0756501
-0.0713576
-0.0667773
-0.0619145
-0.0567755
-0.0513678
-0.0456997
-0.0397804
-0.0336203
-0.0272305
-0.020623
-0.0138105
-0.00680621
0.000375837
0.00772121
0.0152151
0.0228423
0.0305876
0.0384351
0.0463695
0.0543749
0.0624358
0.0705368
0.0786626
0.0867986
0.0949306
0.103043
0.111123
0.119157
0.127134
0.135041
0.142866
0.150598
0.158227
0.165744
0.17314
0.180407
0.187538
0.194525
0.201362
0.208045
0.214569
0.220929
0.227122
0.233145
0.238997
0.244675
0.250179
0.255507
0.260659
0.265637
0.270441
0.275072
0.279533
0.283824
0.287949
0.291907
0.295704
0.29934
0.302819
0.306146
0.309322
0.312352
0.31524
0.317989
0.320604
0.323088
0.325445
0.327679
0.329794
0.331795
0.333685
0.335468
0.337148
0.338729
0.340213
0.341606
0.342911
0.34413
0.345268
0.346327
0.347311
0.348223
0.349066
0.349842
0.350554
0.351206
0.351799
0.352337
0.35282
0.353252
0.353635
0.353971
0.354261
0.354508
0.354713
0.354877
0.355003
0.355092
0.355145
0.355164
0.355149
0.355102
0.355025
0.354917
0.354781
0.354618
0.354428
0.354213
0.353975
0.353715
0.353435
0.353137
0.352826
0.352504
0.352177
0.351851
0.351535
0.351241
0.350982
0.350777
0.350643
0.350615
0.350618
0.350855
0.350161
-0.0672377
-0.0679672
-0.069271
-0.070541
-0.0714834
-0.072192
-0.0727789
-0.0733121
-0.0738384
-0.0743936
-0.075004
-0.0756876
-0.0764557
-0.0773148
-0.0782672
-0.0793121
-0.0804461
-0.081664
-0.0829591
-0.0843236
-0.085748
-0.0872217
-0.0887334
-0.0902712
-0.0918224
-0.093374
-0.0949123
-0.0964231
-0.097892
-0.0993044
-0.100646
-0.101901
-0.103055
-0.104093
-0.105
-0.105763
-0.106366
-0.106796
-0.107038
-0.107081
-0.106911
-0.106516
-0.105885
-0.105008
-0.103875
-0.102478
-0.100807
-0.0988578
-0.0966236
-0.0941001
-0.0912837
-0.0881725
-0.0847654
-0.0810627
-0.0770661
-0.0727785
-0.068204
-0.0633478
-0.0582164
-0.052817
-0.047158
-0.0412488
-0.0350996
-0.0287216
-0.0221267
-0.0153275
-0.00833747
-0.00117035
0.00615944
0.0136372
0.0212477
0.0289758
0.0368059
0.0447226
0.0527102
0.0607533
0.0688366
0.0769449
0.085064
0.093179
0.101275
0.109339
0.117359
0.125322
0.133216
0.141029
0.148751
0.156371
0.16388
0.171269
0.178531
0.185658
0.192642
0.199479
0.206163
0.212689
0.219053
0.225252
0.231283
0.237144
0.242832
0.248347
0.253688
0.258856
0.263849
0.26867
0.27332
0.277799
0.282111
0.286256
0.290236
0.294056
0.297716
0.30122
0.304572
0.307775
0.310832
0.313747
0.316524
0.319166
0.321679
0.324064
0.326328
0.328472
0.330502
0.332421
0.334233
0.335942
0.337551
0.339065
0.340486
0.341819
0.343066
0.344231
0.345318
0.346329
0.347267
0.348136
0.348938
0.349676
0.350352
0.35097
0.351531
0.352038
0.352493
0.352898
0.353255
0.353567
0.353834
0.354059
0.354244
0.354389
0.354496
0.354568
0.354604
0.354606
0.354576
0.354514
0.354422
0.354301
0.354152
0.353975
0.353773
0.353547
0.353298
0.353028
0.352739
0.352434
0.352117
0.351792
0.351464
0.35114
0.350829
0.350542
0.350292
0.350083
0.349936
0.349761
0.349722
0.348687
-0.0671936
-0.0679706
-0.0693754
-0.0707748
-0.0718562
-0.0727071
-0.0734355
-0.0741066
-0.074766
-0.0754485
-0.0761802
-0.0769789
-0.0778555
-0.0788155
-0.0798603
-0.0809887
-0.0821975
-0.083481
-0.0848321
-0.0862427
-0.0877035
-0.0892048
-0.0907358
-0.092285
-0.0938405
-0.0953899
-0.0969199
-0.0984174
-0.0998686
-0.10126
-0.102577
-0.103806
-0.104933
-0.105944
-0.106823
-0.107557
-0.108131
-0.108532
-0.108747
-0.108762
-0.108565
-0.108144
-0.107487
-0.106585
-0.105428
-0.104006
-0.102313
-0.100341
-0.0980847
-0.09554
-0.0927032
-0.0895723
-0.0861464
-0.0824259
-0.0784125
-0.074109
-0.0695197
-0.0646498
-0.0595056
-0.0540946
-0.0484253
-0.0425071
-0.0363503
-0.0299661
-0.0233666
-0.0165643
-0.00957269
-0.00240553
0.00492279
0.0123976
0.0200038
0.0277262
0.0355494
0.043458
0.0514365
0.0594695
0.0675419
0.0756388
0.0837456
0.0918475
0.0999304
0.107981
0.115988
0.123938
0.131819
0.13962
0.147329
0.154937
0.162435
0.169815
0.177067
0.184186
0.191163
0.197994
0.204673
0.211196
0.217557
0.223755
0.229786
0.235647
0.241338
0.246856
0.252202
0.257376
0.262377
0.267206
0.271865
0.276355
0.280678
0.284836
0.28883
0.292664
0.29634
0.299861
0.30323
0.30645
0.309526
0.312461
0.315258
0.317921
0.320455
0.322862
0.325147
0.327314
0.329367
0.331308
0.333143
0.334875
0.336507
0.338044
0.339488
0.340844
0.342114
0.343302
0.344411
0.345445
0.346405
0.347296
0.34812
0.348879
0.349576
0.350215
0.350796
0.351323
0.351798
0.352223
0.352599
0.352929
0.353215
0.353458
0.35366
0.353822
0.353946
0.354033
0.354085
0.354103
0.354087
0.35404
0.353962
0.353854
0.353717
0.353553
0.353362
0.353146
0.352907
0.352645
0.352363
0.352063
0.351748
0.351421
0.351088
0.350752
0.350421
0.3501
0.349798
0.34951
0.349243
0.3489
0.348619
0.34731
-0.0678773
-0.0686526
-0.0700689
-0.0715146
-0.0726757
-0.0736242
-0.0744583
-0.0752371
-0.0760028
-0.0767884
-0.0776178
-0.0785073
-0.0794673
-0.0805033
-0.0816169
-0.0828064
-0.084068
-0.0853965
-0.0867851
-0.0882263
-0.0897111
-0.0912299
-0.0927722
-0.0943272
-0.0958832
-0.0974282
-0.0989495
-0.100435
-0.10187
-0.103244
-0.104541
-0.105748
-0.106851
-0.107836
-0.108688
-0.109394
-0.109939
-0.110311
-0.110495
-0.110479
-0.11025
-0.109797
-0.109107
-0.108172
-0.10698
-0.105524
-0.103796
-0.101789
-0.0994979
-0.0969179
-0.0940461
-0.0908807
-0.0874208
-0.083667
-0.0796211
-0.0752862
-0.0706666
-0.0657677
-0.0605959
-0.055159
-0.0494654
-0.0435247
-0.0373475
-0.0309449
-0.0243291
-0.0175127
-0.0105092
-0.00333233
0.00400345
0.0114835
0.0190929
0.0268164
0.0346388
0.0425446
0.0505185
0.0585453
0.06661
0.0746979
0.0827942
0.0908843
0.0989547
0.106992
0.114985
0.122921
0.130787
0.138573
0.146268
0.153861
0.161345
0.168711
0.17595
0.183056
0.190021
0.196841
0.203509
0.210021
0.216374
0.222564
0.228588
0.234444
0.24013
0.245645
0.250989
0.256161
0.261162
0.265993
0.270654
0.275148
0.279475
0.283638
0.287639
0.291481
0.295165
0.298696
0.302076
0.305308
0.308397
0.311344
0.314156
0.316833
0.319382
0.321805
0.324107
0.32629
0.32836
0.330319
0.332172
0.333922
0.335573
0.337128
0.338591
0.339965
0.341254
0.342461
0.343589
0.344642
0.345621
0.34653
0.347372
0.34815
0.348866
0.349522
0.350121
0.350666
0.351158
0.3516
0.351993
0.35234
0.352642
0.352901
0.353118
0.353295
0.353434
0.353536
0.353602
0.353634
0.353632
0.353597
0.353532
0.353436
0.353311
0.353157
0.352977
0.35277
0.352538
0.352283
0.352006
0.351709
0.351394
0.351065
0.350723
0.350372
0.350017
0.349659
0.349301
0.348932
0.34855
0.34805
0.347561
0.346029
-0.0691919
-0.0699245
-0.0712767
-0.0726933
-0.0738738
-0.0748714
-0.0757702
-0.0766212
-0.0774607
-0.078318
-0.0792151
-0.0801675
-0.0811843
-0.0822703
-0.0834271
-0.0846539
-0.0859474
-0.0873027
-0.0887132
-0.0901713
-0.0916685
-0.0931954
-0.0947418
-0.0962971
-0.0978497
-0.099388
-0.1009
-0.102373
-0.103795
-0.105153
-0.106432
-0.107619
-0.1087
-0.109662
-0.110488
-0.111167
-0.111684
-0.112024
-0.112176
-0.112125
-0.11186
-0.111368
-0.110639
-0.109662
-0.108428
-0.106929
-0.105156
-0.103103
-0.100766
-0.0981396
-0.0952215
-0.0920099
-0.0885044
-0.0847058
-0.0806162
-0.0762388
-0.0715781
-0.0666398
-0.0614306
-0.0559582
-0.0502315
-0.0442601
-0.0380546
-0.0316264
-0.0249877
-0.0181512
-0.0111304
-0.00393911
0.00340832
0.0108973
0.0185128
0.0262399
0.0340633
0.0419677
0.0499379
0.0579588
0.0660156
0.0740934
0.0821778
0.0902545
0.0983105
0.106333
0.114309
0.122227
0.130076
0.137844
0.14552
0.153095
0.16056
0.167907
0.175127
0.182215
0.189162
0.195965
0.202617
0.209113
0.215451
0.221627
0.227638
0.233482
0.239157
0.244663
0.249998
0.255164
0.260159
0.264984
0.269642
0.274133
0.278459
0.282622
0.286623
0.290467
0.294154
0.297689
0.301074
0.304313
0.307408
0.310364
0.313184
0.315872
0.318431
0.320865
0.323179
0.325375
0.327457
0.32943
0.331297
0.333061
0.334726
0.336296
0.337775
0.339165
0.340469
0.341692
0.342836
0.343904
0.3449
0.345825
0.346683
0.347477
0.348208
0.348881
0.349496
0.350056
0.350564
0.351021
0.351429
0.351791
0.352107
0.35238
0.352612
0.352803
0.352956
0.353071
0.35315
0.353194
0.353205
0.353182
0.353128
0.353043
0.352929
0.352785
0.352613
0.352415
0.35219
0.351941
0.351668
0.351372
0.351056
0.350721
0.350369
0.350001
0.349619
0.349222
0.348807
0.348358
0.347866
0.347223
0.346554
0.344843
-0.0709874
-0.0716469
-0.0728783
-0.0742049
-0.0753523
-0.0763525
-0.077273
-0.0781566
-0.0790345
-0.0799314
-0.0808659
-0.0818517
-0.0828976
-0.0840089
-0.0851872
-0.0864318
-0.0877395
-0.0891054
-0.0905235
-0.0919864
-0.0934857
-0.0950122
-0.0965556
-0.0981054
-0.0996504
-0.10118
-0.102681
-0.104144
-0.105553
-0.106895
-0.108158
-0.109326
-0.110386
-0.111324
-0.112124
-0.112774
-0.11326
-0.113566
-0.113681
-0.113591
-0.113284
-0.112748
-0.111972
-0.110947
-0.109663
-0.108111
-0.106285
-0.104178
-0.101786
-0.0991043
-0.0961314
-0.0928654
-0.0893063
-0.0854552
-0.0813145
-0.0768878
-0.0721798
-0.0671964
-0.0619445
-0.0564321
-0.0506682
-0.0446625
-0.0384258
-0.0319697
-0.0253063
-0.0184485
-0.0114097
-0.00420376
0.003155
0.010652
0.0182723
0.026001
0.0338232
0.0417236
0.0496872
0.0576991
0.0657446
0.0738089
0.0818777
0.0899375
0.0979752
0.105978
0.113933
0.121829
0.129656
0.137399
0.145051
0.152602
0.160042
0.167364
0.17456
0.181623
0.188547
0.195326
0.201956
0.208431
0.214748
0.220904
0.226896
0.232722
0.238381
0.243871
0.249192
0.254344
0.259328
0.264143
0.268791
0.273274
0.277593
0.281751
0.285748
0.289589
0.293274
0.296809
0.300194
0.303435
0.306533
0.309493
0.312317
0.315011
0.317577
0.320018
0.32234
0.324545
0.326637
0.32862
0.330497
0.332273
0.33395
0.335532
0.337023
0.338426
0.339744
0.34098
0.342138
0.34322
0.344229
0.345168
0.34604
0.346848
0.347594
0.34828
0.34891
0.349484
0.350006
0.350476
0.350899
0.351274
0.351604
0.35189
0.352135
0.352339
0.352505
0.352632
0.352723
0.352779
0.352801
0.35279
0.352747
0.352672
0.352567
0.352433
0.35227
0.352078
0.35186
0.351615
0.351345
0.35105
0.350732
0.35039
0.350026
0.349639
0.349229
0.348791
0.348319
0.347793
0.347197
0.346427
0.345601
0.343745
-0.073099
-0.0736622
-0.0747303
-0.0759187
-0.0769864
-0.0779466
-0.0788506
-0.0797313
-0.0806132
-0.0815176
-0.0824607
-0.0834548
-0.0845075
-0.0856235
-0.0868044
-0.0880494
-0.0893557
-0.0907187
-0.0921323
-0.0935893
-0.0950808
-0.096598
-0.0981311
-0.09967
-0.101204
-0.102723
-0.104213
-0.105663
-0.107058
-0.108384
-0.109628
-0.110776
-0.111812
-0.112723
-0.113494
-0.114111
-0.11456
-0.114827
-0.114899
-0.114763
-0.114407
-0.113819
-0.11299
-0.111908
-0.110566
-0.108954
-0.107068
-0.1049
-0.102446
-0.0997041
-0.0966708
-0.0933455
-0.0897284
-0.0858212
-0.0816264
-0.077148
-0.0723909
-0.0673614
-0.0620665
-0.0565144
-0.0507143
-0.0446761
-0.0384107
-0.0319295
-0.0252448
-0.0183694
-0.0113167
-0.00410055
0.00326483
0.010765
0.0183851
0.0261105
0.0339261
0.041817
0.0497683
0.0577653
0.0657932
0.0738374
0.0818842
0.0899206
0.0979333
0.105909
0.113837
0.121705
0.129501
0.137214
0.144834
0.152353
0.159762
0.167053
0.174218
0.18125
0.188144
0.194894
0.201494
0.207941
0.214232
0.220362
0.226329
0.232131
0.237768
0.243237
0.248538
0.253672
0.258638
0.263438
0.268073
0.272543
0.276851
0.280998
0.284987
0.28882
0.2925
0.296029
0.299412
0.30265
0.305747
0.308707
0.311534
0.31423
0.316799
0.319245
0.321572
0.323783
0.325882
0.327872
0.329758
0.331542
0.333229
0.334821
0.336322
0.337736
0.339065
0.340313
0.341482
0.342576
0.343598
0.34455
0.345435
0.346255
0.347014
0.347713
0.348355
0.348942
0.349477
0.349961
0.350395
0.350783
0.351126
0.351425
0.351682
0.351898
0.352075
0.352215
0.352318
0.352385
0.352418
0.352417
0.352384
0.352319
0.352223
0.352097
0.351942
0.351758
0.351545
0.351305
0.351037
0.350741
0.350419
0.35007
0.349693
0.349286
0.348847
0.348369
0.347841
0.347242
0.346551
0.345665
0.344704
0.34273
-0.0753514
-0.0758078
-0.0766902
-0.0777077
-0.0786592
-0.0795422
-0.0803926
-0.0812358
-0.0820914
-0.0829763
-0.083904
-0.0848843
-0.0859238
-0.0870265
-0.0881939
-0.089425
-0.0907165
-0.0920637
-0.0934606
-0.0949003
-0.0963747
-0.0978751
-0.0993924
-0.100917
-0.102437
-0.103942
-0.105417
-0.106849
-0.108224
-0.109529
-0.110748
-0.111868
-0.112874
-0.113751
-0.114484
-0.11506
-0.115464
-0.115683
-0.115703
-0.115513
-0.115099
-0.114452
-0.113561
-0.112416
-0.111009
-0.109332
-0.10738
-0.105148
-0.10263
-0.099825
-0.0967303
-0.0933455
-0.0896712
-0.0857092
-0.0814626
-0.0769355
-0.0721331
-0.0670618
-0.0617288
-0.0561426
-0.0503122
-0.0442477
-0.0379601
-0.0314607
-0.0247619
-0.0178765
-0.0108179
-0.0035996
0.00376408
0.0112588
0.0188701
0.0265831
0.0343832
0.0422555
0.0501854
0.0581582
0.0661591
0.0741741
0.0821906
0.0901949
0.0981734
0.106114
0.114005
0.121836
0.129594
0.137268
0.144849
0.152329
0.159698
0.16695
0.174077
0.181071
0.187928
0.194641
0.201206
0.207619
0.213876
0.219974
0.22591
0.231683
0.237292
0.242734
0.248011
0.253121
0.258066
0.262846
0.267461
0.271914
0.276207
0.28034
0.284316
0.288138
0.291809
0.29533
0.298706
0.301939
0.305033
0.30799
0.310815
0.31351
0.31608
0.318528
0.320858
0.323073
0.325177
0.327173
0.329065
0.330856
0.33255
0.334151
0.335661
0.337084
0.338422
0.33968
0.34086
0.341965
0.342997
0.343961
0.344857
0.345689
0.34646
0.347171
0.347825
0.348424
0.348971
0.349467
0.349913
0.350313
0.350668
0.350979
0.351247
0.351475
0.351664
0.351815
0.351928
0.352006
0.35205
0.352059
0.352036
0.351981
0.351894
0.351776
0.351628
0.351451
0.351243
0.351006
0.35074
0.350444
0.350118
0.349761
0.34937
0.348943
0.348475
0.347957
0.347377
0.346708
0.34593
0.344941
0.343862
0.341794
-0.0775951
-0.0779425
-0.0786305
-0.0794578
-0.0802661
-0.0810431
-0.0818113
-0.0825891
-0.0833913
-0.084231
-0.0851192
-0.0860642
-0.0870712
-0.0881431
-0.0892803
-0.0904815
-0.0917435
-0.0930618
-0.0944306
-0.0958436
-0.0972931
-0.0987705
-0.100266
-0.101768
-0.103266
-0.104747
-0.106196
-0.1076
-0.108945
-0.110217
-0.1114
-0.112481
-0.113444
-0.114275
-0.114959
-0.115482
-0.115831
-0.115991
-0.115951
-0.115697
-0.115219
-0.114506
-0.113548
-0.112335
-0.110861
-0.109118
-0.1071
-0.104803
-0.102223
-0.0993573
-0.0962046
-0.0927646
-0.0890383
-0.0850279
-0.0807364
-0.0761684
-0.0713291
-0.0662251
-0.0608637
-0.0552534
-0.0494033
-0.0433236
-0.0370251
-0.0305193
-0.0238184
-0.016935
-0.00988253
-0.0026744
0.0046753
0.0121524
0.0197425
0.027431
0.0352035
0.0430453
0.0509417
0.0588781
0.0668405
0.074816
0.0827911
0.090752
0.0986858
0.106581
0.114426
0.122209
0.129918
0.137544
0.145077
0.152509
0.15983
0.167035
0.174115
0.181064
0.187876
0.194546
0.201069
0.20744
0.213657
0.219717
0.225617
0.231355
0.23693
0.242341
0.247588
0.25267
0.257589
0.262344
0.266936
0.271368
0.275641
0.279757
0.283717
0.287525
0.291183
0.294693
0.29806
0.301285
0.304372
0.307324