/*--------------------------------*- C++ -*----------------------------------*\
  =========                 |
  \\      /  F ield         | OpenFOAM: The Open Source CFD Toolbox
   \\    /   O peration     | Website:  https://openfoam.org
    \\  /    A nd           | Version:  7
     \\/     M anipulation  |
\*---------------------------------------------------------------------------*/
FoamFile
{
    version     2.0;
    format      ascii;
    class       surfaceScalarField;
    location    "234";
    object      phi;
}
// * * * * * * * * * * * * * * * * * * * * * * * * * * * * * * * * * * * * * //

dimensions      [0 3 -1 0 0 0 0];

internalField   nonuniform List<scalar> 
24170
(
3.54198e-08
-1.95109e-08
5.52477e-08
-1.9828e-08
7.16404e-08
-1.63928e-08
8.56321e-08
-1.39918e-08
9.78778e-08
-1.22458e-08
1.08278e-07
-1.03998e-08
1.17083e-07
-8.80524e-09
1.24569e-07
-7.48677e-09
1.30975e-07
-6.40542e-09
1.36501e-07
-5.52617e-09
1.41318e-07
-4.81706e-09
1.45575e-07
-4.25679e-09
1.49414e-07
-3.83961e-09
1.53e-07
-3.5857e-09
1.5657e-07
-3.57067e-09
1.60653e-07
-4.08236e-09
1.66547e-07
-5.89391e-09
-1.40466e-08
1.80593e-07
7.59589e-08
-4.37793e-08
9.99391e-08
-4.38083e-08
1.20428e-07
-3.68813e-08
1.38338e-07
-3.19023e-08
1.53841e-07
-2.77487e-08
1.67276e-07
-2.38351e-08
1.78933e-07
-2.04627e-08
1.89087e-07
-1.76399e-08
1.9798e-07
-1.52991e-08
2.05825e-07
-1.33711e-08
2.12802e-07
-1.17946e-08
2.19074e-07
-1.05286e-08
2.24794e-07
-9.55971e-09
2.3013e-07
-8.92176e-09
2.35299e-07
-8.73959e-09
2.40616e-07
-9.39952e-09
2.4655e-07
-1.18276e-08
-1.8482e-08
2.50985e-07
1.13649e-07
-6.33371e-08
1.37393e-07
-6.75527e-08
1.59151e-07
-5.86389e-08
1.78165e-07
-5.0917e-08
1.94654e-07
-4.42369e-08
2.09074e-07
-3.82556e-08
2.21723e-07
-3.31114e-08
2.32856e-07
-2.87725e-08
2.42702e-07
-2.51454e-08
2.51462e-07
-2.21315e-08
2.59312e-07
-1.96449e-08
2.6641e-07
-1.76262e-08
2.72903e-07
-1.60523e-08
2.78938e-07
-1.49575e-08
2.84673e-07
-1.4474e-08
2.90226e-07
-1.49529e-08
2.95449e-07
-1.70505e-08
-2.16072e-08
2.98574e-07
1.57509e-07
-7.69117e-08
1.78538e-07
-8.8582e-08
1.99721e-07
-7.98222e-08
2.18729e-07
-6.99247e-08
2.35439e-07
-6.09471e-08
2.50201e-07
-5.30176e-08
2.63269e-07
-4.61801e-08
2.7487e-07
-4.03726e-08
2.85206e-07
-3.5482e-08
2.94462e-07
-3.13877e-08
3.02801e-07
-2.79839e-08
3.1037e-07
-2.5195e-08
3.17302e-07
-2.29849e-08
3.23721e-07
-2.13763e-08
3.29723e-07
-2.04757e-08
3.35305e-07
-2.05349e-08
3.40158e-07
-2.1904e-08
-2.46493e-08
3.432e-07
2.09614e-07
-8.44317e-08
2.2675e-07
-1.05718e-07
2.46024e-07
-9.90959e-08
2.64157e-07
-8.80577e-08
2.80484e-07
-7.72744e-08
2.9511e-07
-6.76427e-08
3.08194e-07
-5.92644e-08
3.1991e-07
-5.20883e-08
3.30426e-07
-4.59985e-08
3.39901e-07
-4.08626e-08
3.48479e-07
-3.65616e-08
3.5629e-07
-3.30059e-08
3.6345e-07
-3.01449e-08
3.70053e-07
-2.79799e-08
3.76151e-07
-2.65738e-08
3.81683e-07
-2.60664e-08
3.8635e-07
-2.65711e-08
-2.78204e-08
3.89521e-07
2.71485e-07
-8.6429e-08
2.83983e-07
-1.18216e-07
3.00289e-07
-1.15402e-07
3.16726e-07
-1.04494e-07
3.32051e-07
-9.25998e-08
3.46055e-07
-8.1647e-08
3.58755e-07
-7.19644e-08
3.70245e-07
-6.35782e-08
3.80645e-07
-5.63982e-08
3.90077e-07
-5.02949e-08
3.9866e-07
-4.51447e-08
4.06503e-07
-4.08483e-08
4.13698e-07
-3.734e-08
4.20313e-07
-3.45955e-08
4.26368e-07
-3.26286e-08
4.31782e-07
-3.14808e-08
4.3632e-07
-3.11088e-08
-3.11402e-08
4.3964e-07
3.44474e-07
-8.38465e-08
3.5189e-07
-1.25632e-07
3.64363e-07
-1.27876e-07
3.78287e-07
-1.18418e-07
3.91954e-07
-1.06267e-07
4.04807e-07
-9.45003e-08
4.16683e-07
-8.38405e-08
4.27574e-07
-7.44691e-08
4.37534e-07
-6.63578e-08
4.4664e-07
-5.94009e-08
4.54977e-07
-5.34813e-08
4.62625e-07
-4.84963e-08
4.69652e-07
-4.43674e-08
4.76101e-07
-4.10449e-08
4.8197e-07
-3.84977e-08
4.87182e-07
-3.66924e-08
4.91571e-07
-3.54975e-08
-3.45482e-08
4.94979e-07
4.29734e-07
-7.78424e-08
4.31976e-07
-1.27874e-07
4.39963e-07
-1.35863e-07
4.50591e-07
-1.29045e-07
4.61918e-07
-1.17594e-07
4.7304e-07
-1.05623e-07
4.83602e-07
-9.44022e-08
4.93473e-07
-8.43406e-08
5.02627e-07
-7.55119e-08
5.11085e-07
-6.7859e-08
5.1889e-07
-6.12859e-08
5.26088e-07
-5.56947e-08
5.32721e-07
-5.09997e-08
5.38806e-07
-4.713e-08
5.44328e-07
-4.40197e-08
5.49221e-07
-4.1586e-08
5.53383e-07
-3.96594e-08
-3.79284e-08
5.56763e-07
5.28219e-07
-6.96234e-08
5.2557e-07
-1.25226e-07
5.28695e-07
-1.38989e-07
5.35352e-07
-1.35701e-07
5.4365e-07
-1.25892e-07
5.52429e-07
-1.14402e-07
5.61141e-07
-1.03114e-07
5.69524e-07
-9.27241e-08
5.7746e-07
-8.34484e-08
5.84905e-07
-7.53038e-08
5.91852e-07
-6.82325e-08
5.98309e-07
-6.21521e-08
6.04287e-07
-5.69772e-08
6.09781e-07
-5.26243e-08
6.14766e-07
-4.9005e-08
6.19191e-07
-4.60103e-08
6.22996e-07
-4.34652e-08
-4.11215e-08
6.26189e-07
6.40665e-07
-6.03166e-08
6.33748e-07
-1.18308e-07
6.31977e-07
-1.37218e-07
6.34188e-07
-1.37913e-07
6.3882e-07
-1.30524e-07
6.44643e-07
-1.20226e-07
6.50941e-07
-1.09411e-07
6.5733e-07
-9.91129e-08
6.63595e-07
-8.97131e-08
6.69618e-07
-8.13274e-08
6.7534e-07
-7.39539e-08
6.80726e-07
-6.75384e-08
6.85754e-07
-6.20052e-08
6.90398e-07
-5.72684e-08
6.94623e-07
-5.32303e-08
6.98387e-07
-4.9774e-08
7.01661e-07
-4.67387e-08
-4.39323e-08
7.04471e-07
7.67548e-07
-5.0859e-08
7.57262e-07
-1.08022e-07
7.50897e-07
-1.30853e-07
7.48468e-07
-1.35483e-07
7.48961e-07
-1.31017e-07
7.5127e-07
-1.22535e-07
7.54602e-07
-1.12743e-07
7.58472e-07
-1.02984e-07
7.62581e-07
-9.38213e-08
7.6674e-07
-8.54863e-08
7.70832e-07
-7.80467e-08
7.74782e-07
-7.14879e-08
7.78531e-07
-6.57545e-08
7.82032e-07
-6.07689e-08
7.85238e-07
-5.64365e-08
7.8811e-07
-5.2646e-08
7.90632e-07
-4.92612e-08
-4.61339e-08
7.92834e-07
7.575e-07
-4.2978e-08
7.4712e-07
-9.76427e-08
7.38669e-07
-1.22402e-07
7.33125e-07
-1.29939e-07
7.30176e-07
-1.28068e-07
7.29097e-07
-1.21455e-07
7.29253e-07
-1.129e-07
7.30199e-07
-1.0393e-07
7.31635e-07
-9.52575e-08
7.3336e-07
-8.72108e-08
7.35235e-07
-7.99216e-08
7.37162e-07
-7.34157e-08
7.39069e-07
-6.76615e-08
7.40897e-07
-6.25962e-08
7.42596e-07
-5.81355e-08
7.44131e-07
-5.4181e-08
7.45481e-07
-5.06115e-08
-4.73425e-08
7.46689e-07
1.00243e-06
-3.48559e-08
9.89288e-07
-8.45015e-08
9.76821e-07
-1.09934e-07
9.66851e-07
-1.1997e-07
9.59652e-07
-1.20869e-07
9.54772e-07
-1.16576e-07
9.5163e-07
-1.09758e-07
9.49732e-07
-1.02032e-07
9.48714e-07
-9.42389e-08
9.4831e-07
-8.68075e-08
9.48329e-07
-7.99402e-08
9.48625e-07
-7.37121e-08
9.49089e-07
-6.81249e-08
9.49631e-07
-6.3139e-08
9.50185e-07
-5.86893e-08
9.50701e-07
-5.46966e-08
9.51156e-07
-5.10665e-08
-4.77517e-08
9.51565e-07
1.3276e-06
-2.69595e-08
1.31218e-06
-6.90821e-08
1.29554e-06
-9.32914e-08
1.28034e-06
-1.04776e-07
1.2676e-06
-1.08132e-07
1.25737e-06
-1.06343e-07
1.2493e-06
-1.01682e-07
1.24295e-06
-9.56856e-08
1.23795e-06
-8.92423e-08
1.234e-06
-8.28543e-08
1.23085e-06
-7.67867e-08
1.2283e-06
-7.11656e-08
1.22621e-06
-6.60326e-08
1.22445e-06
-6.13793e-08
1.22293e-06
-5.71676e-08
1.22157e-06
-5.33438e-08
1.22035e-06
-4.98457e-08
-4.66477e-08
1.21925e-06
1.75355e-06
-1.95761e-08
1.73673e-06
-5.22676e-08
1.71643e-06
-7.29848e-08
1.69587e-06
-8.42174e-08
1.67677e-06
-8.90298e-08
1.65984e-06
-8.94174e-08
1.64518e-06
-8.70212e-08
1.63259e-06
-8.30938e-08
1.62179e-06
-7.84416e-08
1.6125e-06
-7.35615e-08
1.60445e-06
-6.8745e-08
1.59744e-06
-6.41533e-08
1.59127e-06
-5.98637e-08
1.58579e-06
-5.59004e-08
1.58088e-06
-5.22556e-08
1.57644e-06
-4.89047e-08
1.57241e-06
-4.58165e-08
-4.29839e-08
1.56875e-06
2.29919e-06
-1.26974e-08
2.28173e-06
-3.48124e-08
2.25868e-06
-4.99373e-08
2.23341e-06
-5.89402e-08
2.20803e-06
-6.36483e-08
2.18386e-06
-6.52475e-08
2.16152e-06
-6.46878e-08
2.14121e-06
-6.27857e-08
2.1229e-06
-6.01275e-08
2.10644e-06
-5.70987e-08
2.09164e-06
-5.39464e-08
2.07831e-06
-5.0824e-08
2.06627e-06
-4.78198e-08
2.05534e-06
-4.49777e-08
2.0454e-06
-4.23134e-08
2.03632e-06
-3.98272e-08
2.02802e-06
-3.75134e-08
-3.53817e-08
2.02042e-06
2.97233e-06
-5.93752e-09
2.9543e-06
-1.67859e-08
2.92906e-06
-2.46947e-08
2.89986e-06
-2.97381e-08
2.86895e-06
-3.27473e-08
2.83796e-06
-3.42556e-08
2.80792e-06
-3.46413e-08
2.7794e-06
-3.42658e-08
2.75268e-06
-3.34161e-08
2.72787e-06
-3.22871e-08
2.70494e-06
-3.10101e-08
2.68379e-06
-2.96739e-08
2.6643e-06
-2.83353e-08
2.64635e-06
-2.70283e-08
2.62981e-06
-2.57712e-08
2.61456e-06
-2.45736e-08
2.60049e-06
-2.34423e-08
-2.23973e-08
2.5875e-06
3.74866e-06
1.53906e-09
3.72912e-06
2.75644e-09
3.70102e-06
3.40129e-09
3.66765e-06
3.64031e-09
3.63138e-06
3.5217e-09
3.59397e-06
3.15386e-09
3.55669e-06
2.64078e-09
3.52037e-06
2.04536e-09
3.48555e-06
1.40613e-09
3.45251e-06
7.52181e-10
3.4214e-06
1.05336e-10
3.39224e-06
-5.19133e-10
3.36502e-06
-1.11087e-09
3.33965e-06
-1.66324e-09
3.31605e-06
-2.17258e-09
3.29412e-06
-2.63867e-09
3.27374e-06
-3.06548e-09
-3.46799e-09
3.25481e-06
4.53044e-06
8.60912e-09
4.50779e-06
2.54077e-08
4.47411e-06
3.70751e-08
4.4338e-06
4.39515e-08
4.38994e-06
4.73824e-08
4.34474e-06
4.83522e-08
4.29978e-06
4.75979e-08
4.2561e-06
4.57294e-08
4.2143e-06
4.32032e-08
4.17472e-06
4.03316e-08
4.13751e-06
3.73233e-08
4.10267e-06
3.4316e-08
4.07016e-06
3.13976e-08
4.03988e-06
2.86211e-08
4.01169e-06
2.60154e-08
3.98546e-06
2.35929e-08
3.96104e-06
2.13531e-08
1.92768e-08
3.93829e-06
3.11439e-06
1.81392e-08
3.09193e-06
4.78712e-08
3.06212e-06
6.68825e-08
3.02898e-06
7.70952e-08
2.9951e-06
8.12599e-08
2.96213e-06
8.13215e-08
2.93098e-06
7.87469e-08
2.90206e-06
7.46533e-08
2.87546e-06
6.97976e-08
2.85113e-06
6.46603e-08
2.82892e-06
5.95324e-08
2.80865e-06
5.45857e-08
2.79014e-06
4.99151e-08
2.77319e-06
4.55656e-08
2.75766e-06
4.1552e-08
2.74338e-06
3.78702e-08
2.73023e-06
3.45041e-08
3.14268e-08
2.71808e-06
2.47121e-06
2.86929e-08
2.44728e-06
7.18076e-08
2.41839e-06
9.57644e-08
2.38916e-06
1.06325e-07
2.36183e-06
1.08593e-07
2.33734e-06
1.0581e-07
2.31587e-06
1.00218e-07
2.2972e-06
9.33299e-08
2.28096e-06
8.60311e-08
2.26681e-06
7.8812e-08
2.25441e-06
7.19311e-08
2.24348e-06
6.55145e-08
2.23379e-06
5.96104e-08
2.22513e-06
5.42222e-08
2.21735e-06
4.93295e-08
2.21032e-06
4.48998e-08
2.20393e-06
4.08949e-08
3.72718e-08
2.19809e-06
1.9037e-06
4.17115e-08
1.87974e-06
9.57721e-08
1.85545e-06
1.20046e-07
1.83446e-06
1.27319e-07
1.81757e-06
1.25478e-07
1.80451e-06
1.18873e-07
1.79457e-06
1.10154e-07
1.78703e-06
1.00871e-07
1.78129e-06
9.17775e-08
1.77688e-06
8.32189e-08
1.77347e-06
7.53399e-08
1.77081e-06
6.81788e-08
1.7687e-06
6.17172e-08
1.76701e-06
5.59101e-08
1.76564e-06
5.07016e-08
1.76451e-06
4.6033e-08
1.76355e-06
4.18479e-08
3.80915e-08
1.76273e-06
1.42686e-06
5.67368e-08
1.40668e-06
1.15953e-07
1.39146e-06
1.35265e-07
1.38202e-06
1.3676e-07
1.37734e-06
1.30165e-07
1.37604e-06
1.20171e-07
1.37692e-06
1.09276e-07
1.37912e-06
9.86672e-08
1.3821e-06
8.88027e-08
1.38548e-06
7.98339e-08
1.38904e-06
7.17794e-08
1.39263e-06
6.45933e-08
1.39614e-06
5.8202e-08
1.39953e-06
5.25238e-08
1.40275e-06
4.74783e-08
1.40579e-06
4.29906e-08
1.40865e-06
3.89944e-08
3.54306e-08
1.41131e-06
1.04091e-06
7.15722e-08
1.02911e-06
1.27751e-07
1.02588e-06
1.38493e-07
1.02879e-06
1.33849e-07
1.03547e-06
1.23485e-07
1.04406e-06
1.11583e-07
1.05338e-06
9.99526e-08
1.06281e-06
8.92391e-08
1.072e-06
7.96139e-08
1.08076e-06
7.10699e-08
1.08901e-06
6.35301e-08
1.09671e-06
5.68927e-08
1.10386e-06
5.10521e-08
1.11048e-06
4.59082e-08
1.11659e-06
4.13703e-08
1.12222e-06
3.73582e-08
1.12741e-06
3.38044e-08
3.06522e-08
1.13219e-06
7.38433e-07
8.27658e-08
7.38359e-07
1.27825e-07
7.47537e-07
1.29315e-07
7.61247e-07
1.20139e-07
7.76671e-07
1.08062e-07
7.92201e-07
9.6053e-08
8.07104e-07
8.50494e-08
8.21085e-07
7.52581e-08
8.3404e-07
6.66586e-08
8.4596e-07
5.91504e-08
8.56882e-07
5.26076e-08
8.6687e-07
4.69048e-08
8.75995e-07
4.19272e-08
8.8433e-07
3.75729e-08
8.91947e-07
3.37537e-08
8.98912e-07
3.03934e-08
9.05286e-07
2.74294e-08
2.48141e-08
9.11125e-07
5.08366e-07
8.65192e-08
5.2098e-07
1.15211e-07
5.4063e-07
1.09665e-07
5.62102e-07
9.86674e-08
5.83023e-07
8.71407e-08
6.02531e-07
7.65445e-08
6.20413e-07
6.71683e-08
6.36674e-07
5.89965e-08
6.51407e-07
5.19259e-08
6.64733e-07
4.58243e-08
6.76783e-07
4.05578e-08
6.87684e-07
3.60036e-08
6.97556e-07
3.20551e-08
7.06508e-07
2.86209e-08
7.14638e-07
2.56239e-08
7.22033e-07
2.29981e-08
7.28773e-07
2.069e-08
1.86655e-08
7.34921e-07
3.38162e-07
7.97782e-08
3.61902e-07
9.14715e-08
3.88608e-07
8.29584e-08
4.14394e-07
7.2881e-08
4.37872e-07
6.36629e-08
4.58944e-07
5.54726e-08
4.77802e-07
4.83104e-08
4.94657e-07
4.21416e-08
5.09722e-07
3.68603e-08
5.23203e-07
3.2344e-08
5.35283e-07
2.8477e-08
5.46131e-07
2.51562e-08
5.55891e-07
2.22946e-08
5.64693e-07
1.98191e-08
5.72648e-07
1.7669e-08
5.79853e-07
1.57931e-08
5.86395e-07
1.41477e-08
1.27169e-08
5.92344e-07
2.15302e-07
6.10481e-08
2.4653e-07
6.02435e-08
2.76305e-07
5.31835e-08
3.03318e-07
4.58683e-08
3.27038e-07
3.99431e-08
3.47891e-07
3.46193e-08
3.66284e-07
2.99176e-08
3.82528e-07
2.58969e-08
3.96903e-07
2.24856e-08
4.09655e-07
1.95926e-08
4.20997e-07
1.71347e-08
4.31114e-07
1.5039e-08
4.40164e-07
1.32447e-08
4.48281e-07
1.17015e-08
4.55582e-07
1.03685e-08
4.62164e-07
9.21103e-09
4.68117e-07
8.19439e-09
7.32043e-09
4.73514e-07
1.27954e-07
3.10772e-08
1.60946e-07
2.72523e-08
1.89657e-07
2.44723e-08
2.15191e-07
2.03345e-08
2.37324e-07
1.78094e-08
2.56578e-07
1.5366e-08
2.73365e-07
1.31299e-08
2.88029e-07
1.12332e-08
3.00874e-07
9.64117e-09
3.12163e-07
8.30348e-09
3.22119e-07
7.17796e-09
3.30931e-07
6.22735e-09
3.38755e-07
5.42053e-09
3.45724e-07
4.73264e-09
3.5195e-07
4.1431e-09
3.57525e-07
3.63574e-09
3.62533e-07
3.18613e-09
2.79372e-09
3.6706e-07
5.8662e-08
8.59143e-08
1.10387e-07
1.30721e-07
1.4853e-07
1.63896e-07
1.77026e-07
1.88259e-07
1.97901e-07
2.06204e-07
2.13382e-07
2.19609e-07
2.2503e-07
2.29763e-07
2.33906e-07
2.37541e-07
2.40728e-07
2.43521e-07
3.36662e-09
-3.36615e-09
9.06641e-09
-5.69896e-09
1.42894e-08
-5.22231e-09
1.79447e-08
-3.65461e-09
1.97058e-08
-1.76045e-09
1.96282e-08
7.81921e-11
1.79739e-08
1.65487e-09
1.50786e-08
2.89582e-09
1.12229e-08
3.85627e-09
6.58269e-09
4.64063e-09
1.2378e-09
5.34531e-09
-4.83987e-09
6.07798e-09
-1.17354e-08
6.89581e-09
-1.9508e-08
7.77272e-09
-2.82029e-08
8.69512e-09
-3.78483e-08
9.64546e-09
-4.84467e-08
1.05985e-08
-5.99729e-08
1.15261e-08
-7.23702e-08
1.23974e-08
-8.55572e-08
1.31865e-08
-9.94309e-08
1.38738e-08
-1.13878e-07
1.44463e-08
-1.28775e-07
1.48966e-08
-1.43997e-07
1.52214e-08
-1.59419e-07
1.5422e-08
-1.74923e-07
1.55033e-08
-1.90397e-07
1.54733e-08
-2.0574e-07
1.53421e-08
-2.2086e-07
1.51207e-08
-2.35682e-07
1.48205e-08
-2.50134e-07
1.44529e-08
-2.64164e-07
1.40285e-08
-2.7772e-07
1.35572e-08
-2.90769e-07
1.30477e-08
-3.03276e-07
1.25078e-08
-3.1522e-07
1.1944e-08
-3.26581e-07
1.13618e-08
-3.37347e-07
1.07657e-08
-3.47505e-07
1.01594e-08
-3.57051e-07
9.54566e-09
-3.65977e-07
8.92697e-09
-3.74282e-07
8.30485e-09
-3.81962e-07
7.68069e-09
-3.89018e-07
7.05521e-09
-3.95446e-07
6.42906e-09
-4.01248e-07
5.80228e-09
-4.06422e-07
5.17485e-09
-4.10968e-07
4.5461e-09
-4.14883e-07
3.91532e-09
-4.18164e-07
3.28131e-09
-4.20806e-07
2.64294e-09
-4.22804e-07
1.99829e-09
-4.24149e-07
1.34515e-09
-4.24832e-07
6.83608e-10
-4.24858e-07
2.66902e-11
-4.2427e-07
-5.87405e-10
-4.2312e-07
-1.14844e-09
-4.21439e-07
-1.68025e-09
-4.19245e-07
-2.19278e-09
-4.16553e-07
-2.69103e-09
-4.13375e-07
-3.17687e-09
-4.09723e-07
-3.65093e-09
-4.05609e-07
-4.11316e-09
-4.01045e-07
-4.56324e-09
-3.96043e-07
-5.00071e-09
-3.90617e-07
-5.42501e-09
-3.84781e-07
-5.8357e-09
-3.78547e-07
-6.23219e-09
-3.71933e-07
-6.61411e-09
-3.64951e-07
-6.98092e-09
-3.57619e-07
-7.33234e-09
-3.4995e-07
-7.6679e-09
-3.41962e-07
-7.98746e-09
-3.33671e-07
-8.29056e-09
-3.25093e-07
-8.57725e-09
-3.16245e-07
-8.84711e-09
-3.07144e-07
-9.10035e-09
-2.97806e-07
-9.33671e-09
-2.8825e-07
-9.55654e-09
-2.78489e-07
-9.75954e-09
-2.68543e-07
-9.94609e-09
-2.58426e-07
-1.01162e-08
-2.48158e-07
-1.02693e-08
-2.37752e-07
-1.04053e-08
-2.27228e-07
-1.05258e-08
-2.16597e-07
-1.06308e-08
-2.05879e-07
-1.07205e-08
-1.95087e-07
-1.07947e-08
-1.84238e-07
-1.08539e-08
-1.73345e-07
-1.08987e-08
-1.62421e-07
-1.09291e-08
-1.5148e-07
-1.09455e-08
-1.40536e-07
-1.09483e-08
-1.29603e-07
-1.09381e-08
-1.18692e-07
-1.09152e-08
-1.07816e-07
-1.08804e-08
-9.69854e-08
-1.0834e-08
-8.62127e-08
-1.07766e-08
-7.55076e-08
-1.07086e-08
-6.48802e-08
-1.06307e-08
-5.43397e-08
-1.05433e-08
-4.38953e-08
-1.04468e-08
-3.35552e-08
-1.03419e-08
-2.33277e-08
-1.02287e-08
-1.3222e-08
-1.01068e-08
-3.25391e-09
-9.969e-09
6.57512e-09
-9.83006e-09
1.6272e-08
-9.69796e-09
2.58243e-08
-9.55358e-09
3.52204e-08
-9.39751e-09
4.44546e-08
-9.23588e-09
5.35229e-08
-9.06996e-09
6.24216e-08
-8.90051e-09
7.11477e-08
-8.72801e-09
7.96986e-08
-8.55279e-09
8.80718e-08
-8.37522e-09
9.62654e-08
-8.19557e-09
1.04278e-07
-8.01422e-09
1.12107e-07
-7.83143e-09
1.19753e-07
-7.64755e-09
1.27213e-07
-7.46281e-09
1.34489e-07
-7.27759e-09
1.41578e-07
-7.09205e-09
1.48483e-07
-6.90659e-09
1.55202e-07
-6.72131e-09
1.61736e-07
-6.5366e-09
1.68087e-07
-6.35251e-09
1.74255e-07
-6.16947e-09
1.80241e-07
-5.98743e-09
1.86046e-07
-5.80681e-09
1.91673e-07
-5.62755e-09
1.97122e-07
-5.45005e-09
2.02396e-07
-5.27419e-09
2.07496e-07
-5.10037e-09
2.12425e-07
-4.92845e-09
2.17184e-07
-4.75879e-09
2.21776e-07
-4.59127e-09
2.26204e-07
-4.42619e-09
2.30469e-07
-4.26344e-09
2.34575e-07
-4.10323e-09
2.38523e-07
-3.94553e-09
2.42317e-07
-3.79048e-09
2.45957e-07
-3.63811e-09
2.49448e-07
-3.48848e-09
2.52792e-07
-3.34158e-09
2.55992e-07
-3.19745e-09
2.5905e-07
-3.05606e-09
2.6197e-07
-2.91745e-09
2.64754e-07
-2.7816e-09
2.67405e-07
-2.64851e-09
2.69925e-07
-2.51816e-09
2.72318e-07
-2.39054e-09
2.74585e-07
-2.26559e-09
2.76731e-07
-2.14328e-09
2.78756e-07
-2.0235e-09
2.80665e-07
-1.90621e-09
2.82458e-07
-1.79129e-09
2.84139e-07
-1.67861e-09
2.85709e-07
-1.56797e-09
2.8717e-07
-1.45914e-09
2.88524e-07
-1.35181e-09
2.89772e-07
-1.24562e-09
2.90914e-07
-1.14e-09
2.9195e-07
-1.03423e-09
2.9288e-07
-9.27301e-10
2.93699e-07
-8.17853e-10
2.94405e-07
-7.04005e-10
2.9499e-07
-5.8311e-10
2.95443e-07
-4.51111e-10
2.95747e-07
-3.0169e-10
2.95866e-07
-1.17998e-10
2.95743e-07
1.2478e-10
2.95307e-07
4.38525e-10
2.94467e-07
8.41147e-10
2.93078e-07
1.39011e-09
2.90884e-07
2.19559e-09
2.87393e-07
3.49277e-09
2.81685e-07
5.70913e-09
2.71647e-07
1.004e-08
1.84314e-08
2.53217e-07
3.59411e-09
-6.95966e-09
6.60985e-09
-8.71374e-09
7.2879e-09
-5.8997e-09
5.9568e-09
-2.32295e-09
2.99177e-09
1.20505e-09
-1.37523e-09
4.44564e-09
-7.02851e-09
7.30856e-09
-1.39147e-08
9.78239e-09
-2.19774e-08
1.19193e-08
-3.11489e-08
1.38124e-08
-4.13629e-08
1.55595e-08
-5.25243e-08
1.72396e-08
-6.45257e-08
1.88973e-08
-7.72924e-08
2.05395e-08
-9.07443e-08
2.21471e-08
-1.04785e-07
2.36863e-08
-1.19305e-07
2.51181e-08
-1.34186e-07
2.64074e-08
-1.49314e-07
2.75259e-08
-1.64579e-07
2.84504e-08
-1.79869e-07
2.91647e-08
-1.95083e-07
2.96601e-08
-2.10124e-07
2.99371e-08
-2.24907e-07
3.00038e-08
-2.39359e-07
2.98739e-08
-2.5342e-07
2.95644e-08
-2.67042e-07
2.90949e-08
-2.80186e-07
2.84855e-08
-2.92822e-07
2.77566e-08
-3.04929e-07
2.69273e-08
-3.16492e-07
2.60155e-08
-3.27501e-07
2.5037e-08
-3.37949e-07
2.40057e-08
-3.47835e-07
2.29337e-08
-3.57158e-07
2.18307e-08
-3.65919e-07
2.07049e-08
-3.7412e-07
1.95629e-08
-3.81764e-07
1.84098e-08
-3.88853e-07
1.72495e-08
-3.95393e-07
1.6085e-08
-4.01384e-07
1.49185e-08
-4.06831e-07
1.37517e-08
-4.11736e-07
1.25857e-08
-4.16102e-07
1.14212e-08
-4.19931e-07
1.02589e-08
-4.23227e-07
9.09892e-09
-4.25994e-07
7.94166e-09
-4.28235e-07
6.78728e-09
-4.29955e-07
5.63617e-09
-4.31163e-07
4.4889e-09
-4.31866e-07
3.34653e-09
-4.32078e-07
2.21079e-09
-4.31818e-07
1.08542e-09
-4.31112e-07
-2.20767e-11
-4.29983e-07
-1.10187e-09
-4.28416e-07
-2.15365e-09
-4.26381e-07
-3.18304e-09
-4.23869e-07
-4.19138e-09
-4.20882e-07
-5.17921e-09
-4.17426e-07
-6.14691e-09
-4.13508e-07
-7.09421e-09
-4.09137e-07
-8.02048e-09
-4.04325e-07
-8.9248e-09
-3.99082e-07
-9.80609e-09
-3.93419e-07
-1.06633e-08
-3.87348e-07
-1.14952e-08
-3.80882e-07
-1.23008e-08
-3.74035e-07
-1.30791e-08
-3.66819e-07
-1.38291e-08
-3.5925e-07
-1.45499e-08
-3.51341e-07
-1.52408e-08
-3.43108e-07
-1.5901e-08
-3.34565e-07
-1.65299e-08
-3.25728e-07
-1.71271e-08
-3.16613e-07
-1.76921e-08
-3.07235e-07
-1.82245e-08
-2.97611e-07
-1.87244e-08
-2.87755e-07
-1.91914e-08
-2.77686e-07
-1.96259e-08
-2.67417e-07
-2.00277e-08
-2.56966e-07
-2.03974e-08
-2.46347e-07
-2.07346e-08
-2.35579e-07
-2.10386e-08
-2.24674e-07
-2.131e-08
-2.1365e-07
-2.15508e-08
-2.0252e-07
-2.17609e-08
-1.91301e-07
-2.19408e-08
-1.80006e-07
-2.20905e-08
-1.68652e-07
-2.22111e-08
-1.57251e-07
-2.23029e-08
-1.45816e-07
-2.23669e-08
-1.3436e-07
-2.24036e-08
-1.22897e-07
-2.24137e-08
-1.11439e-07
-2.23983e-08
-9.99983e-08
-2.23582e-08
-8.85862e-08
-2.22945e-08
-7.72139e-08
-2.22082e-08
-6.58921e-08
-2.21002e-08
-5.46309e-08
-2.19715e-08
-4.34401e-08
-2.18231e-08
-3.23286e-08
-2.1656e-08
-2.13053e-08
-2.14711e-08
-1.03782e-08
-2.12697e-08
4.44758e-10
-2.10522e-08
1.11575e-08
-2.08199e-08
2.17602e-08
-2.0572e-08
3.224e-08
-2.03103e-08
4.25778e-08
-2.00363e-08
5.27711e-08
-1.97476e-08
6.28189e-08
-1.9446e-08
7.27166e-08
-1.91345e-08
8.24605e-08
-1.88148e-08
9.2047e-08
-1.8488e-08
1.01473e-07
-1.8155e-08
1.10735e-07
-1.78164e-08
1.19832e-07
-1.7473e-08
1.28761e-07
-1.71253e-08
1.37519e-07
-1.67742e-08
1.46107e-07
-1.64201e-08
1.54522e-07
-1.60637e-08
1.62763e-07
-1.57056e-08
1.70831e-07
-1.53463e-08
1.78723e-07
-1.49864e-08
1.86442e-07
-1.46264e-08
1.93986e-07
-1.42668e-08
2.01356e-07
-1.3908e-08
2.08553e-07
-1.35505e-08
2.15577e-07
-1.31948e-08
2.2243e-07
-1.28411e-08
2.29112e-07
-1.24898e-08
2.35625e-07
-1.21412e-08
2.4197e-07
-1.17958e-08
2.48149e-07
-1.14536e-08
2.54164e-07
-1.11151e-08
2.60016e-07
-1.07804e-08
2.65707e-07
-1.04498e-08
2.7124e-07
-1.01234e-08
2.76616e-07
-9.80135e-09
2.81838e-07
-9.48385e-09
2.86908e-07
-9.17102e-09
2.91828e-07
-8.86306e-09
2.96599e-07
-8.56004e-09
3.01225e-07
-8.26212e-09
3.05708e-07
-7.96929e-09
3.1005e-07
-7.68167e-09
3.14253e-07
-7.39921e-09
3.18321e-07
-7.12202e-09
3.22255e-07
-6.85e-09
3.26058e-07
-6.58325e-09
3.29733e-07
-6.32165e-09
3.33282e-07
-6.06526e-09
3.36707e-07
-5.81391e-09
3.40011e-07
-5.56766e-09
3.43195e-07
-5.32629e-09
3.46263e-07
-5.08976e-09
3.49217e-07
-4.85783e-09
3.52057e-07
-4.63039e-09
3.54788e-07
-4.40707e-09
3.57409e-07
-4.1876e-09
3.59923e-07
-3.97141e-09
3.62331e-07
-3.75799e-09
3.64634e-07
-3.54645e-09
3.66831e-07
-3.33579e-09
3.68923e-07
-3.12449e-09
3.70908e-07
-2.91066e-09
3.72784e-07
-2.69154e-09
3.74545e-07
-2.46355e-09
3.76185e-07
-2.22144e-09
3.77693e-07
-1.9578e-09
3.79054e-07
-1.66134e-09
3.80252e-07
-1.31449e-09
3.81269e-07
-8.90627e-10
3.82062e-07
-3.53169e-10
3.82556e-07
3.49012e-10
3.82642e-07
1.30541e-09
3.82167e-07
2.67191e-09
3.80865e-07
4.79602e-09
3.78369e-07
8.20669e-09
3.73949e-07
1.44617e-08
2.59743e-08
3.66407e-07
8.424e-10
-7.80162e-09
-1.23489e-09
-6.63579e-09
-5.32757e-09
-1.80661e-09
-1.06824e-08
3.03216e-09
-1.70144e-08
7.53736e-09
-2.42311e-08
1.16626e-08
-3.23255e-08
1.54031e-08
-4.13142e-08
1.87713e-08
-5.11991e-08
2.18044e-08
-6.19459e-08
2.45593e-08
-7.3483e-08
2.70967e-08
-8.57068e-08
2.94635e-08
-9.84932e-08
3.16838e-08
-1.11712e-07
3.37585e-08
-1.25235e-07
3.56704e-08
-1.38942e-07
3.73926e-08
-1.52721e-07
3.8897e-08
-1.66473e-07
4.01594e-08
-1.80109e-07
4.11623e-08
-1.93555e-07
4.18958e-08
-2.06748e-07
4.23577e-08
-2.19641e-07
4.25537e-08
-2.322e-07
4.2496e-08
-2.44399e-07
4.2202e-08
-2.56217e-07
4.16925e-08
-2.67643e-07
4.09902e-08
-2.78667e-07
4.01186e-08
-2.89282e-07
3.91008e-08
-2.99485e-07
3.79588e-08
-3.0927e-07
3.6713e-08
-3.18636e-07
3.53815e-08
-3.2758e-07
3.39803e-08
-3.36098e-07
3.25235e-08
-3.44187e-07
3.10225e-08
-3.51843e-07
2.94871e-08
-3.59063e-07
2.79253e-08
-3.65844e-07
2.63433e-08
-3.7218e-07
2.47463e-08
-3.78069e-07
2.31381e-08
-3.83506e-07
2.15219e-08
-3.88487e-07
1.99e-08
-3.93009e-07
1.82742e-08
-3.9707e-07
1.6646e-08
-4.00665e-07
1.50167e-08
-4.03793e-07
1.33873e-08
-4.06453e-07
1.17588e-08
-4.08643e-07
1.01324e-08
-4.10365e-07
8.5092e-09
-4.1162e-07
6.89079e-09
-4.12409e-07
5.27903e-09
-4.12739e-07
3.67629e-09
-4.12613e-07
2.08558e-09
-4.12039e-07
5.10857e-10
-4.11017e-07
-1.04326e-09
-4.09545e-07
-2.57356e-09
-4.07617e-07
-4.08107e-09
-4.05233e-07
-5.56702e-09
-4.02394e-07
-7.03036e-09
-3.99103e-07
-8.46962e-09
-3.95366e-07
-9.88321e-09
-3.91191e-07
-1.12694e-08
-3.86584e-07
-1.26264e-08
-3.81556e-07
-1.39524e-08
-3.76116e-07
-1.52455e-08
-3.70275e-07
-1.65039e-08
-3.64044e-07
-1.77259e-08
-3.57435e-07
-1.89097e-08
-3.5046e-07
-2.00539e-08
-3.43132e-07
-2.11569e-08
-3.35464e-07
-2.22174e-08
-3.2747e-07
-2.32343e-08
-3.19164e-07
-2.42064e-08
-3.10561e-07
-2.51329e-08
-3.01675e-07
-2.60129e-08
-2.92521e-07
-2.68459e-08
-2.83114e-07
-2.76313e-08
-2.73469e-07
-2.83689e-08
-2.63602e-07
-2.90584e-08
-2.53528e-07
-2.96999e-08
-2.43262e-07
-3.02936e-08
-2.3282e-07
-3.08399e-08
-2.22216e-07
-3.13385e-08
-2.11466e-07
-3.17889e-08
-2.00584e-07
-3.21917e-08
-1.89586e-07
-3.25489e-08
-1.78487e-07
-3.2861e-08
-1.673e-07
-3.31283e-08
-1.56039e-07
-3.33517e-08
-1.4472e-07
-3.35318e-08
-1.33355e-07
-3.367e-08
-1.21956e-07
-3.3767e-08
-1.10537e-07
-3.38239e-08
-9.91098e-08
-3.38419e-08
-8.76867e-08
-3.38223e-08
-7.62794e-08
-3.37665e-08
-6.48989e-08
-3.36758e-08
-5.35561e-08
-3.35518e-08
-4.22613e-08
-3.33957e-08
-3.10244e-08
-3.3209e-08
-1.98547e-08
-3.29932e-08
-8.76113e-09
-3.275e-08
2.2482e-09
-3.24806e-08
1.31648e-08
-3.21862e-08
2.39809e-08
-3.18683e-08
3.46895e-08
-3.15284e-08
4.52845e-08
-3.1167e-08
5.57584e-08
-3.07843e-08
6.61029e-08
-3.0381e-08
7.63131e-08
-2.99582e-08
8.63851e-08
-2.95185e-08
9.63145e-08
-2.90644e-08
1.06097e-07
-2.8598e-08
1.15729e-07
-2.81208e-08
1.25208e-07
-2.7634e-08
1.34529e-07
-2.71387e-08
1.43691e-07
-2.6636e-08
1.52692e-07
-2.6127e-08
1.6153e-07
-2.56126e-08
1.70203e-07
-2.50938e-08
1.7871e-07
-2.45714e-08
1.8705e-07
-2.40465e-08
1.95223e-07
-2.35197e-08
2.03227e-07
-2.29919e-08
2.11064e-07
-2.24638e-08
2.18732e-07
-2.19363e-08
2.26233e-07
-2.14099e-08
2.33567e-07
-2.08853e-08
2.40735e-07
-2.03631e-08
2.47737e-07
-1.98439e-08
2.54575e-07
-1.93282e-08
2.6125e-07
-1.88164e-08
2.67763e-07
-1.83091e-08
2.74116e-07
-1.78065e-08
2.8031e-07
-1.73092e-08
2.86347e-07
-1.68174e-08
2.92229e-07
-1.63315e-08
2.97958e-07
-1.58518e-08
3.03535e-07
-1.53783e-08
3.08964e-07
-1.49114e-08
3.14245e-07
-1.44514e-08
3.19382e-07
-1.39983e-08
3.24375e-07
-1.35524e-08
3.29228e-07
-1.31139e-08
3.33943e-07
-1.26827e-08
3.38521e-07
-1.22591e-08
3.42966e-07
-1.1843e-08
3.47279e-07
-1.14345e-08
3.51464e-07
-1.10336e-08
3.55521e-07
-1.06402e-08
3.59455e-07
-1.02544e-08
3.63267e-07
-9.87607e-09
3.66959e-07
-9.50513e-09
3.70533e-07
-9.14149e-09
3.73993e-07
-8.78502e-09
3.77339e-07
-8.43555e-09
3.80575e-07
-8.09282e-09
3.83702e-07
-7.75654e-09
3.86722e-07
-7.4263e-09
3.89637e-07
-7.1016e-09
3.92448e-07
-6.78173e-09
3.95157e-07
-6.46581e-09
3.97764e-07
-6.15262e-09
4.0027e-07
-5.84063e-09
4.02674e-07
-5.5277e-09
4.04975e-07
-5.21098e-09
4.07171e-07
-4.88661e-09
4.09257e-07
-4.54931e-09
4.11228e-07
-4.19168e-09
4.13075e-07
-3.80332e-09
4.14783e-07
-3.36907e-09
4.16337e-07
-2.86721e-09
4.17713e-07
-2.26598e-09
4.18878e-07
-1.51758e-09
4.19778e-07
-5.50722e-10
4.20332e-07
7.51973e-10
4.20424e-07
2.58097e-09
4.19899e-07
5.32197e-09
4.1857e-07
9.5366e-09
4.16398e-07
1.66341e-08
2.86538e-08
4.13719e-07
-2.59761e-09
-5.20367e-09
-8.63465e-09
-5.98325e-10
-1.58871e-08
5.44604e-09
-2.37764e-08
1.09216e-08
-3.2175e-08
1.59361e-08
-4.10707e-08
2.05584e-08
-5.04853e-08
2.48178e-08
-6.0443e-08
2.87291e-08
-7.09484e-08
3.23098e-08
-8.19728e-08
3.55839e-08
-9.3453e-08
3.8577e-08
-1.05298e-07
4.13086e-08
-1.17401e-07
4.37871e-08
-1.29652e-07
4.60092e-08
-1.41946e-07
4.7964e-08
-1.5419e-07
4.96371e-08
-1.66309e-07
5.10152e-08
-1.78238e-07
5.20893e-08
-1.89932e-07
5.28558e-08
-2.01354e-07
5.33179e-08
-2.12481e-07
5.3485e-08
-2.233e-07
5.33724e-08
-2.33803e-07
5.29992e-08
-2.43988e-07
5.2387e-08
-2.53855e-07
5.15591e-08
-2.63404e-07
5.0539e-08
-2.72636e-07
4.93503e-08
-2.8155e-07
4.8015e-08
-2.90145e-07
4.65541e-08
-2.98419e-07
4.49865e-08
-3.06366e-07
4.3329e-08
-3.13983e-07
4.15965e-08
-3.21261e-07
3.98018e-08
-3.28194e-07
3.79557e-08
-3.34775e-07
3.60675e-08
-3.40994e-07
3.41446e-08
-3.46844e-07
3.21932e-08
-3.52316e-07
3.02185e-08
-3.57403e-07
2.82245e-08
-3.62095e-07
2.62146e-08
-3.66387e-07
2.41915e-08
-3.7027e-07
2.21577e-08
-3.73739e-07
2.01151e-08
-3.76788e-07
1.80657e-08
-3.79412e-07
1.60113e-08
-3.81606e-07
1.39537e-08
-3.83369e-07
1.18948e-08
-3.84696e-07
9.83696e-09
-3.85588e-07
7.7824e-09
-3.86042e-07
5.73387e-09
-3.8606e-07
3.69438e-09
-3.85642e-07
1.66725e-09
-3.84787e-07
-3.43909e-10
-3.83494e-07
-2.33575e-09
-3.81761e-07
-4.30589e-09
-3.79589e-07
-6.25331e-09
-3.76979e-07
-8.17682e-09
-3.73935e-07
-1.00743e-08
-3.70461e-07
-1.19431e-08
-3.66563e-07
-1.37807e-08
-3.62248e-07
-1.55842e-08
-3.57523e-07
-1.7351e-08
-3.52397e-07
-1.90784e-08
-3.46878e-07
-2.07636e-08
-3.40977e-07
-2.24044e-08
-3.34705e-07
-2.39981e-08
-3.28072e-07
-2.55426e-08
-3.2109e-07
-2.70358e-08
-3.13771e-07
-2.84756e-08
-3.06127e-07
-2.98604e-08
-2.98173e-07
-3.11885e-08
-2.89921e-07
-3.24585e-08
-2.81385e-07
-3.36691e-08
-2.72578e-07
-3.48193e-08
-2.63515e-07
-3.59083e-08
-2.54211e-07
-3.69354e-08
-2.4468e-07
-3.79e-08
-2.34936e-07
-3.8802e-08
-2.24995e-07
-3.96414e-08
-2.1487e-07
-4.04183e-08
-2.04577e-07
-4.1133e-08
-1.9413e-07
-4.17856e-08
-1.83543e-07
-4.23758e-08
-1.72831e-07
-4.29042e-08
-1.62007e-07
-4.33725e-08
-1.51087e-07
-4.37816e-08
-1.40083e-07
-4.41323e-08
-1.2901e-07
-4.44255e-08
-1.1788e-07
-4.46623e-08
-1.06707e-07
-4.4844e-08
-9.55031e-08
-4.4972e-08
-8.42799e-08
-4.50476e-08
-7.30497e-08
-4.50726e-08
-6.1824e-08
-4.50483e-08
-5.06141e-08
-4.49767e-08
-3.94308e-08
-4.48594e-08
-2.82844e-08
-4.46983e-08
-1.71849e-08
-4.44953e-08
-6.14162e-09
-4.42523e-08
4.83633e-09
-4.39711e-08
1.574e-08
-4.36535e-08
2.65611e-08
-4.33013e-08
3.72918e-08
-4.29166e-08
4.79248e-08
-4.25009e-08
5.84528e-08
-4.20561e-08
6.88693e-08
-4.15833e-08
7.91682e-08
-4.10832e-08
8.93441e-08
-4.05571e-08
9.93925e-08
-4.00068e-08
1.09309e-07
-3.9435e-08
1.19088e-07
-3.88443e-08
1.28727e-07
-3.82371e-08
1.38221e-07
-3.76152e-08
1.47567e-07
-3.69805e-08
1.56762e-07