/*--------------------------------*- C++ -*----------------------------------*\
  =========                 |
  \\      /  F ield         | OpenFOAM: The Open Source CFD Toolbox
   \\    /   O peration     | Website:  https://openfoam.org
    \\  /    A nd           | Version:  7
     \\/     M anipulation  |
\*---------------------------------------------------------------------------*/
FoamFile
{
    version     2.0;
    format      ascii;
    class       volVectorField;
    location    "234";
    object      U;
}
// * * * * * * * * * * * * * * * * * * * * * * * * * * * * * * * * * * * * * //

dimensions      [0 1 -1 0 0 0 0];

internalField   nonuniform List<vector> 
12225
(
(0.0792889 -0.0692421 0)
(0.149124 -0.0159584 0)
(0.200766 -0.00946095 0)
(0.247492 -0.00839524 0)
(0.288571 -0.00758881 0)
(0.324062 -0.00662123 0)
(0.354113 -0.00573865 0)
(0.379542 -0.00499477 0)
(0.401218 -0.00437546 0)
(0.419839 -0.0038646 0)
(0.435979 -0.00344793 0)
(0.450133 -0.00311715 0)
(0.462756 -0.00287451 0)
(0.474298 -0.00274214 0)
(0.48543 -0.00278277 0)
(0.49699 -0.00325847 0)
(0.512412 -0.00448047 0)
(0.533252 -0.0138116 0)
(0.204528 -0.0223796 0)
(0.255386 -0.0233966 0)
(0.323191 -0.0203958 0)
(0.38007 -0.0182238 0)
(0.428514 -0.0164571 0)
(0.470748 -0.014624 0)
(0.507353 -0.0129662 0)
(0.539131 -0.0115432 0)
(0.566883 -0.0103409 0)
(0.591274 -0.00933793 0)
(0.612873 -0.00851417 0)
(0.632175 -0.00786117 0)
(0.649637 -0.00739184 0)
(0.665707 -0.00716301 0)
(0.68096 -0.00732884 0)
(0.696024 -0.00836023 0)
(0.712469 -0.0115384 0)
(0.728576 -0.0208396 0)
(0.296251 -0.0313122 0)
(0.338011 -0.037364 0)
(0.405685 -0.0334123 0)
(0.461965 -0.0300471 0)
(0.509921 -0.0271533 0)
(0.552003 -0.0243729 0)
(0.58885 -0.0218854 0)
(0.621197 -0.0197315 0)
(0.649733 -0.0178944 0)
(0.675044 -0.016348 0)
(0.697639 -0.0150676 0)
(0.717969 -0.0140448 0)
(0.736447 -0.0133004 0)
(0.753466 -0.0129134 0)
(0.769461 -0.0130824 0)
(0.784775 -0.0143192 0)
(0.799818 -0.0177418 0)
(0.812345 -0.0255016 0)
(0.391169 -0.0438228 0)
(0.422165 -0.0520711 0)
(0.48223 -0.0478564 0)
(0.534158 -0.0433594 0)
(0.579298 -0.0392634 0)
(0.619315 -0.035465 0)
(0.654678 -0.0320767 0)
(0.686004 -0.0291248 0)
(0.713861 -0.0265906 0)
(0.738741 -0.0244426 0)
(0.761082 -0.0226521 0)
(0.781279 -0.0212096 0)
(0.79969 -0.0201395 0)
(0.816637 -0.0195296 0)
(0.832428 -0.0195822 0)
(0.847197 -0.0207402 0)
(0.860867 -0.0237484 0)
(0.871473 -0.0293287 0)
(0.492395 -0.0514209 0)
(0.512538 -0.0647854 0)
(0.561559 -0.0619011 0)
(0.607016 -0.0567834 0)
(0.647853 -0.0516749 0)
(0.684645 -0.0469519 0)
(0.717529 -0.042717 0)
(0.746935 -0.0390006 0)
(0.773294 -0.0357878 0)
(0.796992 -0.0330455 0)
(0.81839 -0.0307438 0)
(0.837815 -0.0288716 0)
(0.855561 -0.0274524 0)
(0.871883 -0.0265685 0)
(0.88698 -0.0263932 0)
(0.900857 -0.0272479 0)
(0.913308 -0.0295255 0)
(0.922732 -0.0332014 0)
(0.60036 -0.0545054 0)
(0.610316 -0.0745852 0)
(0.646774 -0.074256 0)
(0.68437 -0.0692991 0)
(0.719698 -0.063585 0)
(0.752326 -0.0581595 0)
(0.781942 -0.0532222 0)
(0.808731 -0.0488429 0)
(0.832964 -0.0450243 0)
(0.854913 -0.0417396 0)
(0.874848 -0.0389611 0)
(0.893023 -0.0366775 0)
(0.909667 -0.0349075 0)
(0.924964 -0.0337174 0)
(0.939033 -0.033234 0)
(0.951811 -0.0336537 0)
(0.963111 -0.0351148 0)
(0.971665 -0.037297 0)
(0.714676 -0.054186 0)
(0.71567 -0.08111 0)
(0.739293 -0.0842052 0)
(0.768024 -0.0802617 0)
(0.796891 -0.0744834 0)
(0.824527 -0.0686619 0)
(0.850177 -0.0632261 0)
(0.873736 -0.0583278 0)
(0.895295 -0.0540085 0)
(0.914998 -0.0502587 0)
(0.933019 -0.0470584 0)
(0.949533 -0.044398 0)
(0.964699 -0.0422896 0)
(0.978639 -0.0407784 0)
(0.99141 -0.039941 0)
(1.00293 -0.0398696 0)
(1.01306 -0.0405436 0)
(1.02082 -0.0415725 0)
(0.834396 -0.0513109 0)
(0.828076 -0.084204 0)
(0.839644 -0.0912529 0)
(0.85884 -0.0891061 0)
(0.880583 -0.0838852 0)
(0.90251 -0.0780436 0)
(0.923567 -0.0723661 0)
(0.943338 -0.0671332 0)
(0.961718 -0.0624492 0)
(0.978719 -0.0583357 0)
(0.994409 -0.0547885 0)
(1.00888 -0.0518025 0)
(1.02223 -0.049384 0)
(1.03451 -0.0475565 0)
(1.04574 -0.0463524 0)
(1.05583 -0.0457878 0)
(1.06474 -0.0457577 0)
(1.07162 -0.0459013 0)
(0.958154 -0.0466594 0)
(0.946509 -0.0839276 0)
(0.947537 -0.0950423 0)
(0.957133 -0.0953239 0)
(0.971294 -0.0912648 0)
(0.986982 -0.0858458 0)
(1.00291 -0.0802296 0)
(1.01839 -0.074888 0)
(1.03313 -0.0700086 0)
(1.047 -0.0656603 0)
(1.05997 -0.0618635 0)
(1.07205 -0.058623 0)
(1.08326 -0.055942 0)
(1.0936 -0.0538266 0)
(1.10307 -0.0522751 0)
(1.11157 -0.0512556 0)
(1.11911 -0.0506302 0)
(1.12497 -0.0501039 0)
(1.08433 -0.0409958 0)
(1.06953 -0.0805917 0)
(1.06195 -0.095421 0)
(1.06264 -0.0984931 0)
(1.06901 -0.0961169 0)
(1.07817 -0.0915755 0)
(1.08855 -0.086364 0)
(1.09933 -0.0811761 0)
(1.11003 -0.0763035 0)
(1.1204 -0.071877 0)
(1.13029 -0.0679522 0)
(1.13964 -0.0645505 0)
(1.14841 -0.0616772 0)
(1.15655 -0.0593274 0)
(1.16403 -0.0574782 0)
(1.17076 -0.0560729 0)
(1.17679 -0.0549737 0)
(1.18142 -0.0539536 0)
(1.21121 -0.0349752 0)
(1.19524 -0.0747349 0)
(1.1813 -0.0924815 0)
(1.17429 -0.0983553 0)
(1.17319 -0.0980281 0)
(1.17577 -0.0947657 0)
(1.18039 -0.0903091 0)
(1.18618 -0.0855536 0)
(1.19252 -0.0809135 0)
(1.19906 -0.07659 0)
(1.20557 -0.072683 0)
(1.2119 -0.0692366 0)
(1.21796 -0.0662648 0)
(1.22367 -0.0637599 0)
(1.22895 -0.06169 0)
(1.23373 -0.0599917 0)
(1.23806 -0.0585448 0)
(1.24126 -0.0571824 0)
(1.3266 -0.0294769 0)
(1.31092 -0.0677255 0)
(1.29336 -0.0871205 0)
(1.2807 -0.0952284 0)
(1.27353 -0.0968758 0)
(1.27033 -0.0950444 0)
(1.26973 -0.0915554 0)
(1.27082 -0.0874408 0)
(1.273 -0.0832216 0)
(1.27582 -0.0791672 0)
(1.279 -0.0754221 0)
(1.28234 -0.0720573 0)
(1.28571 -0.0690993 0)
(1.28899 -0.0665449 0)
(1.29208 -0.0643636 0)
(1.29491 -0.0624968 0)
(1.29753 -0.0608432 0)
(1.29923 -0.0592995 0)
(1.43841 -0.0243195 0)
(1.42408 -0.0598357 0)
(1.40475 -0.0798818 0)
(1.38786 -0.0897135 0)
(1.37559 -0.0932059 0)
(1.36717 -0.0928886 0)
(1.36161 -0.090526 0)
(1.35813 -0.0872278 0)
(1.35614 -0.0835927 0)
(1.35519 -0.0799551 0)
(1.35497 -0.0765018 0)
(1.35524 -0.0733312 0)
(1.35581 -0.0704869 0)
(1.35656 -0.0679752 0)
(1.35736 -0.0657731 0)
(1.35814 -0.0638328 0)
(1.35893 -0.0620735 0)
(1.35902 -0.0604513 0)
(1.56063 -0.0191876 0)
(1.54856 -0.0502295 0)
(1.5292 -0.0696912 0)
(1.50937 -0.080609 0)
(1.49273 -0.0857822 0)
(1.47936 -0.0871113 0)
(1.46873 -0.0861389 0)
(1.46036 -0.0839444 0)
(1.45379 -0.0811621 0)
(1.44861 -0.0781809 0)
(1.4445 -0.0752281 0)
(1.4412 -0.0724323 0)
(1.43851 -0.069858 0)
(1.43628 -0.0675274 0)
(1.43438 -0.0654314 0)
(1.43272 -0.0635391 0)
(1.43129 -0.0617974 0)
(1.42943 -0.0601968 0)
(1.68899 -0.0143706 0)
(1.67947 -0.0394276 0)
(1.66174 -0.0567372 0)
(1.64086 -0.0675736 0)
(1.62126 -0.0737418 0)
(1.60389 -0.0765047 0)
(1.58871 -0.0769852 0)
(1.57564 -0.076081 0)
(1.56443 -0.0743984 0)
(1.55482 -0.0723306 0)
(1.54653 -0.0701244 0)
(1.53933 -0.0679309 0)
(1.53302 -0.0658358 0)
(1.52745 -0.0638796 0)
(1.52248 -0.0620718 0)
(1.518 -0.060402 0)
(1.51399 -0.0588469 0)
(1.50985 -0.0574153 0)
(1.81513 -0.0099164 0)
(1.80781 -0.0280881 0)
(1.79262 -0.0416346 0)
(1.77251 -0.050866 0)
(1.75185 -0.0568471 0)
(1.73213 -0.0602908 0)
(1.71373 -0.0618493 0)
(1.69687 -0.0621385 0)
(1.68163 -0.0616247 0)
(1.66793 -0.0606306 0)
(1.65562 -0.0593766 0)
(1.64455 -0.0580098 0)
(1.63457 -0.0566234 0)
(1.62553 -0.0552706 0)
(1.61732 -0.0539775 0)
(1.60984 -0.0527529 0)
(1.60303 -0.0515977 0)
(1.59639 -0.0505356 0)
(1.924 -0.00566794 0)
(1.91819 -0.0164807 0)
(1.90544 -0.0250302 0)
(1.88706 -0.0312254 0)
(1.86689 -0.0356096 0)
(1.84663 -0.0385434 0)
(1.82679 -0.0403215 0)
(1.80776 -0.0412538 0)
(1.78983 -0.0416015 0)
(1.77314 -0.0415573 0)
(1.75768 -0.0412606 0)
(1.74342 -0.0408126 0)
(1.73029 -0.0402833 0)
(1.71818 -0.0397187 0)
(1.70704 -0.0391471 0)
(1.69676 -0.0385858 0)
(1.6873 -0.0380481 0)
(1.67832 -0.0375656 0)
(1.99017 -0.0013083 0)
(1.98507 -0.0042177 0)
(1.97391 -0.00679352 0)
(1.95704 -0.00883922 0)
(1.93785 -0.010473 0)
(1.91804 -0.0117695 0)
(1.89812 -0.0127718 0)
(1.8785 -0.0135432 0)
(1.85954 -0.0141477 0)
(1.84148 -0.0146336 0)
(1.82443 -0.0150357 0)
(1.80842 -0.0153803 0)
(1.79345 -0.0156867 0)
(1.77949 -0.0159685 0)
(1.7665 -0.0162352 0)
(1.75442 -0.0164948 0)
(1.7432 -0.0167565 0)
(1.7327 -0.0170473 0)
(1.97278 0.00304426 0)
(1.96829 0.00868822 0)
(1.95749 0.013142 0)
(1.94083 0.0163195 0)
(1.92177 0.0184356 0)
(1.9021 0.0196982 0)
(1.88238 0.0202843 0)
(1.86299 0.0203545 0)
(1.8443 0.0200423 0)
(1.82654 0.0194515 0)
(1.8098 0.0186623 0)
(1.7941 0.0177367 0)
(1.77943 0.0167226 0)
(1.76576 0.0156561 0)
(1.75304 0.0145636 0)
(1.74119 0.0134632 0)
(1.73016 0.012364 0)
(1.72 0.0112558 0)
(1.85389 0.00812515 0)
(1.84654 0.0231046 0)
(1.83219 0.0345842 0)
(1.81262 0.0424886 0)
(1.79193 0.0475592 0)
(1.77182 0.0504206 0)
(1.75269 0.0515944 0)
(1.73477 0.0515599 0)
(1.71823 0.050705 0)
(1.70308 0.0493117 0)
(1.68925 0.0475801 0)
(1.67663 0.0456527 0)
(1.66511 0.0436293 0)
(1.65458 0.0415782 0)
(1.64493 0.039545 0)
(1.63607 0.0375589 0)
(1.62791 0.0356351 0)
(1.62059 0.0337715 0)
(1.6912 0.0142788 0)
(1.68142 0.0384965 0)
(1.66394 0.0552615 0)
(1.64294 0.0656268 0)
(1.62294 0.0713263 0)
(1.60515 0.073675 0)
(1.58948 0.0737314 0)
(1.57578 0.072329 0)
(1.56389 0.0700555 0)
(1.55355 0.0673028 0)
(1.54452 0.0643216 0)
(1.53658 0.061272 0)
(1.52956 0.0582534 0)
(1.52331 0.055325 0)
(1.51772 0.05252 0)
(1.51267 0.0498549 0)
(1.50808 0.0473338 0)
(1.50411 0.0449483 0)
(1.49891 0.0216436 0)
(1.48571 0.0545675 0)
(1.46669 0.0742227 0)
(1.44779 0.0844758 0)
(1.43256 0.0886433 0)
(1.42094 0.0889083 0)
(1.41207 0.0868672 0)
(1.4053 0.0836191 0)
(1.40016 0.079795 0)
(1.39624 0.0757681 0)
(1.39323 0.0717507 0)
(1.39088 0.0678604 0)
(1.38903 0.0641589 0)
(1.38757 0.0606744 0)
(1.38638 0.0574151 0)
(1.38541 0.0543782 0)
(1.38458 0.0515536 0)
(1.38407 0.0489248 0)
(1.29314 0.0305285 0)
(1.27752 0.0697536 0)
(1.26113 0.0887102 0)
(1.24934 0.096091 0)
(1.24305 0.0970962 0)
(1.24068 0.0946542 0)
(1.2407 0.0905159 0)
(1.24222 0.0857058 0)
(1.24464 0.0807639 0)
(1.24757 0.0759374 0)
(1.25075 0.0713505 0)
(1.25399 0.0670603 0)
(1.25721 0.0630824 0)
(1.26034 0.0594114 0)
(1.26333 0.0560313 0)
(1.26615 0.0529215 0)
(1.2688 0.0500608 0)
(1.27143 0.0474268 0)
(1.08551 0.0402447 0)
(1.07089 0.0811407 0)
(1.06281 0.095713 0)
(1.06271 0.0986877 0)
(1.06821 0.0963184 0)
(1.07649 0.0916022 0)
(1.08596 0.08605 0)
(1.09579 0.0804323 0)
(1.1055 0.0750449 0)
(1.11484 0.0700084 0)
(1.12367 0.0653646 0)
(1.13194 0.0611137 0)
(1.13964 0.0572363 0)
(1.14677 0.0537047 0)
(1.15336 0.0504879 0)
(1.15943 0.0475546 0)
(1.16502 0.0448776 0)
(1.1703 0.0424326 0)
(0.884965 0.0489241 0)
(0.876079 0.0857689 0)
(0.881791 0.0938427 0)
(0.896478 0.092577 0)
(0.914461 0.0877854 0)
(0.933131 0.0818455 0)
(0.951388 0.0758598 0)
(0.968646 0.0701965 0)
(0.9847 0.0649739 0)
(0.999507 0.06022 0)
(1.01309 0.0559201 0)
(1.02553 0.0520414 0)
(1.03689 0.048545 0)
(1.04726 0.0453908 0)
(1.05674 0.0425401 0)
(1.0654 0.0399573 0)
(1.07332 0.0376131 0)
(1.08066 0.035486 0)
(0.69829 0.0538605 0)
(0.699774 0.0819463 0)
(0.723196 0.0837177 0)
(0.753196 0.0796097 0)
(0.782559 0.0737752 0)
(0.810299 0.0678066 0)
(0.835924 0.0622136 0)
(0.859272 0.0571089 0)
(0.880438 0.0525102 0)
(0.899591 0.0483948 0)
(0.916909 0.0447209 0)
(0.932568 0.0414409 0)
(0.94674 0.0385085 0)
(0.959582 0.035881 0)
(0.971235 0.0335199 0)
(0.981827 0.0313905 0)
(0.991458 0.0294651 0)
(1.00032 0.0277296 0)
(0.530078 0.0518709 0)
(0.54526 0.0697455 0)
(0.587357 0.0673461 0)
(0.63075 0.0621466 0)
(0.669507 0.0567155 0)
(0.704411 0.0516321 0)
(0.735749 0.0469998 0)
(0.763747 0.0428489 0)
(0.788753 0.0391621 0)
(0.811114 0.0358997 0)
(0.831135 0.0330142 0)
(0.849094 0.0304576 0)
(0.865235 0.0281864 0)
(0.879776 0.0261621 0)
(0.892902 0.0243513 0)
(0.90478 0.0227238 0)
(0.915539 0.0212548 0)
(0.92538 0.0199413 0)
(0.382206 0.0412404 0)
(0.412762 0.0512846 0)
(0.470199 0.0478156 0)
(0.52369 0.0431486 0)
(0.569268 0.0390763 0)
(0.609243 0.0353335 0)
(0.644563 0.0319216 0)
(0.675724 0.0288917 0)
(0.703255 0.0262271 0)
(0.727646 0.0238896 0)
(0.749312 0.0218381 0)
(0.76861 0.0200327 0)
(0.785849 0.0184382 0)
(0.801291 0.0170241 0)
(0.815161 0.0157646 0)
(0.827653 0.0146363 0)
(0.83892 0.0136165 0)
(0.849175 0.012712 0)
(0.251783 0.0300845 0)
(0.298435 0.0322298 0)
(0.362127 0.0294648 0)
(0.420561 0.0261511 0)
(0.46978 0.023571 0)
(0.512373 0.0211389 0)
(0.549604 0.0188692 0)
(0.582093 0.0168629 0)
(0.610488 0.0151179 0)
(0.6354 0.0136032 0)
(0.657335 0.0122869 0)
(0.676715 0.011139 0)
(0.693896 0.0101334 0)
(0.709176 0.00924808 0)
(0.722806 0.008465 0)
(0.735001 0.00776723 0)
(0.745927 0.00713103 0)
(0.755804 0.00656711 0)
(0.103984 0.0790073 0)
(0.181198 0.0254205 0)
(0.234645 0.0163656 0)
(0.287417 0.0138715 0)
(0.333193 0.0124407 0)
(0.372484 0.0110562 0)
(0.406298 0.00972829 0)
(0.435219 0.0085633 0)
(0.459963 0.00756591 0)
(0.481227 0.00671143 0)
(0.499577 0.00597715 0)
(0.515468 0.00534333 0)
(0.529277 0.00479294 0)
(0.541315 0.00431272 0)
(0.55184 0.00388993 0)
(0.56107 0.00351954 0)
(0.569152 0.00317793 0)
(0.576248 0.00287731 0)
(0.00125551 -0.00302134 -1.04455e-20)
(0.00557526 -0.00591674 1.25121e-20)
(0.0104774 -0.00644327 0)
(0.0145624 -0.00538313 0)
(0.0170538 -0.00358817 0)
(0.0178499 -0.00167679 -9.6743e-21)
(0.0170045 -2.25358e-05 0)
(0.0149232 0.00123189 0)
(0.0118882 0.00213616 0)
(0.0080936 0.00283437 0)
(0.00364613 0.00346161 1.07298e-20)
(-0.00143703 0.00408272 0)
(-0.00720667 0.00472507 0)
(-0.0137348 0.00542791 0)
(-0.0210753 0.00620996 0)
(-0.0292637 0.00706549 7.3114e-21)
(-0.0383172 0.00797375 0)
(-0.0482287 0.00890154 0)
(-0.0589591 0.00980503 0)
(-0.0704473 0.0106495 0)
(-0.0826101 0.011409 0)
(-0.095351 0.0120659 0)
(-0.108564 0.0126067 0)
(-0.122138 0.0130217 3.76945e-21)
(-0.13596 0.0133076 -3.54996e-21)
(-0.149921 0.0134661 3.36023e-21)
(-0.163917 0.0135033 3.19563e-21)
(-0.177854 0.0134292 0)
(-0.191646 0.0132553 0)
(-0.205215 0.0129942 -2.81482e-21)
(-0.218498 0.0126589 -2.71554e-21)
(-0.231437 0.0122616 0)
(-0.243986 0.0118139 0)
(-0.256107 0.0113262 -2.47004e-21)
(-0.267768 0.0108076 0)
(-0.278944 0.0102659 0)
(-0.289616 0.00970782 2.27253e-21)
(-0.29977 0.00913861 0)
(-0.309393 0.00856279 2.15405e-21)
(-0.318477 0.00798372 4.19336e-21)
(-0.327016 0.00740418 0)
(-0.335005 0.00682606 0)
(-0.34244 0.00625085 0)
(-0.349321 0.00567928 0)
(-0.355644 0.00511178 0)
(-0.361408 0.004548 3.50094e-21)
(-0.366612 0.00398727 3.379e-21)
(-0.371254 0.00342806 3.25395e-21)
(-0.375333 0.00286844 0)
(-0.378843 0.00230576 -2.99321e-21)
(-0.38178 0.0017372 0)
(-0.384137 0.00116061 2.71634e-21)
(-0.385912 0.00057857 2.57136e-21)
(-0.387102 3.78367e-06 0)
(-0.387692 -0.000538209 0)
(-0.387652 -0.00101776 0)
(-0.387116 -0.00144159 1.93794e-21)
(-0.386082 -0.00183574 0)
(-0.384573 -0.00220977 0)
(-0.3826 -0.00256872 0)
(-0.380177 -0.00291447 0)
(-0.377312 -0.00324792 0)
(-0.374015 -0.00356935 0)
(-0.370298 -0.00387882 0)
(-0.366169 -0.00417627 0)
(-0.36164 -0.0044616 -1.44485e-22)
(-0.356722 -0.00473474 0)
(-0.351428 -0.00499555 0)
(-0.345769 -0.00524404 -5.79449e-22)
(-0.339759 -0.00548009 -8.36224e-22)
(-0.33341 -0.00570379 0)
(-0.326736 -0.00591505 1.37414e-21)
(-0.319752 -0.00611404 -1.65573e-21)
(-0.31247 -0.00630071 0)
(-0.304906 -0.00647533 2.24538e-21)
(-0.297074 -0.00663789 0)
(-0.288988 -0.00678874 0)
(-0.280664 -0.00692794 -3.20029e-21)
(-0.272117 -0.00705581 0)
(-0.263361 -0.00717218 3.88771e-21)
(-0.254412 -0.00727736 0)
(-0.245283 -0.00737306 -4.61967e-21)
(-0.23599 -0.00745939 -5.00362e-21)
(-0.226549 -0.00753423 -5.39992e-21)
(-0.216974 -0.00759878 -1.16187e-20)
(-0.207278 -0.00765441 1.24653e-20)
(-0.197477 -0.00770124 0)
(-0.187584 -0.00773918 0)
(-0.177614 -0.00776876 0)
(-0.16758 -0.00779036 1.61582e-20)
(-0.157494 -0.00780411 1.71668e-20)
(-0.147369 -0.00781047 -1.82135e-20)
(-0.137216 -0.00780972 0)
(-0.12705 -0.00780234 2.04312e-20)
(-0.116881 -0.00778871 2.16073e-20)
(-0.10672 -0.00776931 2.28324e-20)
(-0.0965799 -0.00774448 0)
(-0.0864698 -0.00771467 0)
(-0.0763999 -0.00768021 0)
(-0.0663799 -0.00764157 2.82935e-20)
(-0.0564189 -0.00759907 0)
(-0.0465252 -0.00755308 0)
(-0.0367073 -0.00750391 -3.31036e-20)
(-0.0269729 -0.00745192 0)
(-0.0173312 -0.00739776 0)
(-0.00779492 -0.00733419 -3.8703e-20)
(0.00162898 -0.00723286 0)
(0.0109441 -0.00707984 0)
(0.020147 -0.00689984 3.98622e-20)
(0.0292265 -0.0067143 3.9605e-20)
(0.0381741 -0.00652955 0)
(0.0469841 -0.00634673 -3.91107e-20)
(0.0556527 -0.00616617 0)
(0.0641766 -0.00598802 3.86412e-20)
(0.0725527 -0.00581234 0)
(0.0807783 -0.00563921 3.8195e-20)
(0.0888511 -0.00546869 3.79802e-20)
(0.096769 -0.00530086 0)
(0.10453 -0.00513576 0)
(0.112133 -0.00497347 0)
(0.119576 -0.00481402 0)
(0.126858 -0.00465751 0)
(0.133979 -0.00450394 0)
(0.140938 -0.00435341 0)
(0.147735 -0.00420588 3.64479e-20)
(0.15437 -0.00406146 -3.62786e-20)
(0.160843 -0.00392009 0)
(0.167155 -0.0037819 0)
(0.173307 -0.00364679 0)
(0.179298 -0.00351486 0)
(0.18513 -0.00338603 -7.10046e-20)
(0.190805 -0.0032604 0)
(0.196323 -0.00313786 7.04469e-20)
(0.201685 -0.0030185 -7.01812e-20)
(0.206894 -0.00290218 0)
(0.211951 -0.002789 0)
(0.216858 -0.00267884 0)
(0.221616 -0.00257174 6.92031e-20)
(0.226229 -0.0024676 6.89789e-20)
(0.230696 -0.00236645 0)
(0.235022 -0.00226823 6.85539e-20)
(0.239206 -0.00217291 6.83528e-20)
(0.243253 -0.00208047 -6.81593e-20)
(0.247162 -0.00199086 0)
(0.250938 -0.001904 0)
(0.254582 -0.00181985 -6.76224e-20)
(0.258097 -0.00173836 0)
(0.261484 -0.00165945 0)
(0.264747 -0.00158308 0)
(0.267888 -0.00150919 0)
(0.270909 -0.00143771 6.68643e-20)
(0.273812 -0.00136858 6.67317e-20)
(0.2766 -0.00130174 0)
(0.279275 -0.00123714 6.6484e-20)
(0.281839 -0.00117469 0)
(0.284295 -0.00111432 0)
(0.286644 -0.00105595 6.61546e-20)
(0.288888 -0.00099949 0)
(0.29103 -0.000944786 6.59617e-20)
(0.29307 -0.000891721 0)
(0.295011 -0.000840212 0)
(0.296852 -0.000790094 6.57116e-20)
(0.298595 -0.000741135 0)
(0.30024 -0.00069305 6.55723e-20)
(0.301784 -0.000645471 0)
(0.303227 -0.00059792 0)
(0.304564 -0.000549759 0)
(0.305789 -0.000500122 -6.53789e-20)
(0.306892 -0.000447685 0)
(0.307858 -0.000390596 6.53511e-20)
(0.308667 -0.000323641 0)
(0.309266 -0.000237067 0)
(0.309574 -0.000124956 0)
(0.30952 1.74959e-05 0)
(0.308994 0.000203569 0)
(0.307747 0.000472352 0)
(0.305611 0.000884942 0)
(0.301078 0.0016101 -1.34816e-19)
(0.296052 0.00290279 0)
(0.275257 0.00540107 0)
(0.00144784 -0.010748 2.97701e-20)
(0.0050499 -0.0161525 -2.68191e-20)
(0.00657713 -0.0131373 0)
(0.00618818 -0.00792984 9.73123e-21)
(0.0042716 -0.00245504 0)
(0.000997373 0.00260255 4.07226e-21)
(-0.00344483 0.00692608 -7.64167e-21)
(-0.00903386 0.0104494 -7.21945e-21)
(-0.0157059 0.0133048 0)
(-0.0234018 0.0157128 -6.49126e-21)
(-0.0320641 0.0178885 -3.1143e-21)
(-0.0416171 0.0199876 0)
(-0.051971 0.0220936 0)
(-0.0630509 0.0242263 0)
(-0.0747908 0.026358 0)
(-0.0871145 0.0284339 -2.35977e-21)
(-0.0999308 0.0303916 0)
(-0.113134 0.0321775 4.16762e-21)
(-0.126622 0.0337452 0)
(-0.140294 0.0350532 0)
(-0.154052 0.036072 -3.60854e-21)
(-0.167801 0.0367859 0)
(-0.18145 0.0371946 3.32816e-21)
(-0.194917 0.0373099 -1.62606e-21)
(-0.208132 0.0371512 1.57194e-21)
(-0.221035 0.0367437 -1.52374e-21)
(-0.233577 0.0361161 -1.48066e-21)
(-0.245719 0.0352985 0)
(-0.257431 0.0343212 0)
(-0.268689 0.033213 1.37478e-21)
(-0.279476 0.0320005 -1.32068e-21)
(-0.289781 0.0307075 0)
(-0.299597 0.0293548 0)
(-0.308918 0.0279602 1.26545e-21)
(-0.317744 0.0265385 0)
(-0.326074 0.0251018 0)
(-0.333909 0.0236598 -1.19179e-21)
(-0.341251 0.02222 0)
(-0.348101 0.0207882 1.12875e-21)
(-0.354461 0.0193688 -2.2335e-21)
(-0.360334 0.0179649 0)
(-0.365721 0.0165785 0)
(-0.370625 0.0152113 -4.12949e-21)
(-0.375047 0.0138639 -4.01772e-21)
(-0.378989 0.0125369 -3.90179e-21)
(-0.382452 0.01123 1.89029e-21)
(-0.38544 0.00994319 -1.82644e-21)
(-0.387953 0.00867578 -5.28583e-21)
(-0.389996 0.00742724 3.39175e-21)
(-0.391574 0.00619691 1.61715e-21)
(-0.392692 0.00498429 0)
(-0.39336 0.00378872 -1.46445e-21)
(-0.393591 0.00261088 1.41637e-21)
(-0.393402 0.00145608 0)
(-0.392814 0.000339319 0)
(-0.391867 -0.000716945 0)
(-0.390489 -0.00171142 -1.03307e-21)
(-0.388677 -0.00265972 0)
(-0.386428 -0.00356926 1.73844e-21)
(-0.383745 -0.00444439 0)
(-0.380634 -0.00528699 1.33995e-21)
(-0.377101 -0.00609782 0)
(-0.373156 -0.00687698 -9.1958e-22)
(-0.368805 -0.00762428 0)
(-0.36406 -0.00833942 4.77657e-22)
(-0.35893 -0.00902205 -1.70031e-22)
(-0.353425 -0.00967189 0)
(-0.347556 -0.0102887 2.24752e-22)
(-0.341335 -0.0108723 2.86666e-22)
(-0.334773 -0.0114225 4.13438e-22)
(-0.327884 -0.0119395 0)
(-0.32068 -0.0124231 5.5836e-22)
(-0.313173 -0.0128737 8.08216e-22)
(-0.305378 -0.0132913 0)
(-0.297307 -0.0136765 -1.08313e-21)
(-0.288975 -0.0140294 2.31835e-21)
(-0.280395 -0.0143508 0)
(-0.271581 -0.0146411 1.51248e-21)
(-0.262549 -0.0149012 0)
(-0.253311 -0.0151318 -5.28792e-21)
(-0.243882 -0.0153337 0)
(-0.234276 -0.0155071 6.20065e-21)
(-0.224507 -0.0156514 2.27187e-21)
(-0.21459 -0.0157687 -2.27993e-21)
(-0.204539 -0.0158612 -4.87675e-21)
(-0.194366 -0.0159291 5.1982e-21)
(-0.184086 -0.0159731 0)
(-0.173712 -0.0159938 0)
(-0.163258 -0.0159924 0)
(-0.152736 -0.0159698 -2.02262e-20)
(-0.142159 -0.0159271 -7.19461e-21)
(-0.131538 -0.0158651 7.54543e-21)
(-0.120885 -0.0157847 0)
(-0.110212 -0.0156872 7.93601e-21)
(-0.0995309 -0.0155734 -8.62495e-21)
(-0.0888521 -0.0154446 -8.99407e-21)
(-0.0781862 -0.0153018 0)
(-0.0675431 -0.0151459 0)
(-0.0569326 -0.0149781 0)
(-0.0463639 -0.0147993 -1.05196e-20)
(-0.0358457 -0.0146103 0)
(-0.0253866 -0.0144121 2.2303e-20)
(-0.0149943 -0.0142051 3.48335e-20)
(-0.00467693 -0.0139899 -2.39294e-20)
(0.0055595 -0.0137668 0)
(0.0157125 -0.0135334 -1.22602e-20)
(0.0257761 -0.0132816 0)
(0.0357345 -0.0130082 -2.54405e-20)
(0.0455771 -0.012721 1.27215e-20)
(0.0553018 -0.0124278 1.28641e-20)
(0.0649063 -0.0121325 0)
(0.0743867 -0.0118364 3.99286e-20)
(0.0837391 -0.0115405 -2.67784e-20)
(0.09296 -0.0112453 -1.36327e-20)
(0.102046 -0.0109512 0)
(0.110996 -0.0106586 -1.38499e-20)
(0.119805 -0.010368 -4.16289e-20)
(0.128473 -0.0100797 0)
(0.136997 -0.00979391 -2.80763e-20)
(0.145376 -0.0095111 -2.8265e-20)
(0.153609 -0.00923151 -2.84468e-20)
(0.161693 -0.00895543 0)
(0.16963 -0.0086831 0)
(0.177417 -0.0084148 0)
(0.185056 -0.00815069 1.44671e-20)
(0.192545 -0.00789101 1.4716e-20)
(0.199886 -0.00763588 0)
(0.207078 -0.0073855 2.95496e-20)
(0.214122 -0.00713995 2.96864e-20)
(0.221018 -0.0068994 0)
(0.227768 -0.00666386 3.009e-20)
(0.234373 -0.00643348 6.01429e-20)
(0.240833 -0.00620824 -3.03251e-20)
(0.24715 -0.00598827 -3.01811e-20)
(0.253325 -0.00577353 0)
(0.25936 -0.0055641 0)
(0.265256 -0.00535993 0)
(0.271015 -0.00516104 -3.08573e-20)
(0.27664 -0.00496737 3.07426e-20)
(0.28213 -0.00477894 6.18979e-20)
(0.28749 -0.00459571 -3.11451e-20)
(0.292719 -0.00441763 3.10466e-20)
(0.29782 -0.00424468 3.13264e-20)
(0.302795 -0.00407678 0)
(0.307646 -0.00391389 0)
(0.312375 -0.00375588 -3.14218e-20)
(0.316985 -0.00360271 0)
(0.321477 -0.00345425 0)
(0.325853 -0.00331045 6.35152e-20)
(0.330117 -0.00317117 0)
(0.334268 -0.00303636 3.1853e-20)
(0.338311 -0.00290586 -3.20643e-20)
(0.342247 -0.0027796 0)
(0.346078 -0.00265742 3.20954e-20)
(0.349806 -0.0025392 0)
(0.353432 -0.00242477 0)
(0.356959 -0.00231399 -3.24346e-20)
(0.360389 -0.00220666 6.49102e-20)
(0.363723 -0.00210259 -3.25772e-20)
(0.366962 -0.00200148 0)
(0.370108 -0.00190302 0)
(0.373161 -0.0018068 3.27001e-20)
(0.376122 -0.00171236 0)
(0.378989 -0.00161903 3.2846e-20)
(0.381763 -0.00152601 0)
(0.384439 -0.00143216 0)
(0.387016 -0.00133602 0)
(0.389486 -0.00123549 3.32148e-20)
(0.391839 -0.0011276 0)
(0.394064 -0.00100777 -3.33762e-20)
(0.396139 -0.000867398 0)
(0.398049 -0.000694084 0)
(0.399771 -0.000474785 6.73056e-20)
(0.401234 -0.000191948 -6.75592e-20)
(0.402351 0.00019118 0)
(0.402957 0.000736999 0)
(0.402959 0.00159802 0)
(0.401573 0.00298334 2.07823e-19)
(0.399977 0.0056218 0)
(0.391589 0.0105088 -1.44229e-19)
(0.000752011 -0.0152201 -2.98853e-22)
(0.000134191 -0.0162386 2.76451e-20)
(-0.0027266 -0.00870181 0)
(-0.00688819 -0.000579463 -1.21306e-20)
(-0.0120756 0.00700598 0)
(-0.0181055 0.0138225 0)
(-0.0249184 0.019832 3.58063e-23)
(-0.0325253 0.025068 3.81228e-21)
(-0.0409402 0.029628 3.58172e-21)
(-0.0501519 0.0336566 3.45479e-21)
(-0.0601138 0.0373035 0)
(-0.0707478 0.0406865 0)
(-0.0819509 0.0438718 -2.99926e-21)
(-0.0936083 0.0468708 -5.75199e-21)
(-0.105605 0.0496541 5.51918e-21)
(-0.117829 0.0521707 0)
(-0.130175 0.0543653 5.09842e-21)
(-0.142552 0.0561899 -2.47758e-21)
(-0.154876 0.0576118 0)
(-0.167072 0.0586126 4.58432e-21)
(-0.17908 0.059187 2.23181e-21)
(-0.19085 0.0593428 -4.30908e-21)
(-0.202346 0.0591 -2.10207e-21)
(-0.213542 0.0584891 0)
(-0.224417 0.0575475 3.98491e-21)
(-0.234956 0.0563163 3.89632e-21)
(-0.24515 0.0548377 0)
(-0.254992 0.0531529 3.74094e-21)
(-0.264476 0.0513008 0)
(-0.273599 0.0493172 3.60703e-21)
(-0.282356 0.0472336 1.77647e-21)
(-0.290746 0.0450776 0)
(-0.298764 0.0428724 0)
(-0.306408 0.0406373 0)
(-0.313674 0.0383882 0)
(-0.320557 0.0361374 0)
(-0.327056 0.0338948 0)
(-0.333164 0.0316678 3.14345e-21)
(-0.338878 0.029462 -4.62879e-21)
(-0.344194 0.0272813 0)
(-0.349107 0.0251286 0)
(-0.353615 0.0230059 0)
(-0.357712 0.0209145 3.87437e-24)
(-0.361396 0.0188552 2.74739e-21)
(-0.364664 0.0168286 5.338e-21)
(-0.367513 0.0148351 -5.17668e-21)
(-0.369942 0.0128751 -2.50602e-21)
(-0.37195 0.0109493 2.41348e-21)
(-0.373536 0.00905859 8.25022e-24)
(-0.374702 0.00720441 2.23532e-21)
(-0.375451 0.00538911 0)
(-0.375786 0.00361604 2.03656e-21)
(-0.375712 0.00188999 1.83079e-23)
(-0.375231 0.000216719 0)
(-0.374343 -0.00139988 0)
(-0.373044 -0.00296488 -1.58886e-21)
(-0.371327 -0.00448308 0)
(-0.369192 -0.00595344 0)
(-0.366641 -0.00737546 1.24894e-21)
(-0.363677 -0.00874879 2.16303e-21)
(-0.360306 -0.0100729 -9.05109e-22)
(-0.356533 -0.0113473 0)
(-0.352366 -0.0125712 6.18962e-22)
(-0.347812 -0.0137438 0)
(-0.34288 -0.0148645 4.24239e-22)
(-0.337579 -0.0159326 1.66439e-22)
(-0.331918 -0.0169476 -1.33905e-22)
(-0.325909 -0.017909 3.02347e-23)
(-0.319561 -0.0188166 0)
(-0.312886 -0.0196702 -8.23989e-22)
(-0.305896 -0.0204698 0)
(-0.298602 -0.0212155 -2.30184e-21)
(-0.291018 -0.0219077 -1.82771e-21)
(-0.283154 -0.0225466 -2.17156e-21)
(-0.275025 -0.0231329 2.5197e-21)
(-0.266644 -0.0236671 -4.38558e-21)
(-0.258023 -0.0241502 0)
(-0.249177 -0.024583 0)
(-0.240119 -0.0249668 3.95134e-21)
(-0.230862 -0.0253027 6.56173e-21)
(-0.221419 -0.0255919 0)
(-0.211805 -0.0258355 -2.61796e-21)
(-0.202034 -0.0260336 0)
(-0.192117 -0.0261877 8.81325e-21)
(-0.182069 -0.0263008 1.82838e-22)
(-0.171904 -0.0263743 -1.84975e-22)
(-0.161633 -0.0264091 -6.96465e-21)
(-0.151271 -0.0264066 0)
(-0.140829 -0.0263685 7.74158e-21)
(-0.13032 -0.0262963 1.91671e-22)
(-0.119757 -0.0261916 0)
(-0.109149 -0.0260559 0)
(-0.0985101 -0.0258909 0)
(-0.0878501 -0.0256981 -9.90992e-21)
(-0.0771803 -0.0254795 0)
(-0.0665111 -0.0252366 0)
(-0.0558526 -0.0249711 0)
(-0.0452148 -0.0246847 0)
(-0.0346068 -0.0243787 0)
(-0.0240378 -0.0240548 -1.21262e-20)
(-0.0135162 -0.0237145 0)
(-0.00304998 -0.0233591 -1.31188e-20)
(0.00735309 -0.0229905 -1.34297e-20)
(0.0176853 -0.0226097 1.36714e-20)
(0.0279397 -0.0222172 0)
(0.0381102 -0.0218132 1.41344e-20)
(0.0481906 -0.0213996 0)
(0.0581728 -0.0209772 1.45705e-20)
(0.0680501 -0.0205467 -1.4779e-20)
(0.0778184 -0.02011 -4.46077e-20)
(0.087474 -0.0196693 0)
(0.0970128 -0.019226 -4.57864e-20)
(0.10643 -0.0187812 -1.52418e-20)
(0.115724 -0.018336 0)
(0.124889 -0.017891 -3.15208e-20)
(0.133924 -0.017447 -3.18676e-20)
(0.142826 -0.0170047 4.8447e-20)
(0.151594 -0.0165648 0)
(0.160224 -0.0161278 1.65574e-20)
(0.168716 -0.0156944 1.67081e-20)
(0.177068 -0.015265 5.03142e-20)
(0.18528 -0.0148401 0)
(0.193349 -0.0144203 0)
(0.201277 -0.0140059 0)
(0.209063 -0.0135972 1.71805e-20)
(0.216707 -0.0131948 0)
(0.224208 -0.0127987 0)
(0.231567 -0.0124094 -1.77751e-20)
(0.238786 -0.0120271 -1.78934e-20)
(0.245863 -0.0116519 0)
(0.252801 -0.0112841 0)
(0.259599 -0.0109237 -3.64635e-20)
(0.26626 -0.010571 0)
(0.272784 -0.010226 3.68897e-20)
(0.279173 -0.00988872 3.69367e-20)
(0.285428 -0.00955934 0)
(0.291551 -0.00923783 0)
(0.297543 -0.00892417 -3.75465e-20)
(0.303406 -0.00861836 -1.38795e-22)
(0.309142 -0.00832039 -1.3405e-22)
(0.314752 -0.00803026 0)
(0.320239 -0.00774793 -7.67391e-20)
(0.325603 -0.00747335 0)
(0.330847 -0.00720643 0)
(0.335974 -0.00694708 0)
(0.340984 -0.00669519 3.91271e-20)
(0.34588 -0.00645065 0)
(0.350664 -0.00621333 -7.87186e-20)
(0.355339 -0.0059831 -3.9624e-20)
(0.359906 -0.00575983 0)
(0.364367 -0.00554336 -3.99454e-20)
(0.368724 -0.00533353 0)
(0.37298 -0.00513019 0)
(0.377136 -0.00493313 -1.21081e-19)
(0.381194 -0.00474219 8.09788e-20)
(0.385157 -0.00455711 0)
(0.389026 -0.00437768 8.15961e-20)
(0.392802 -0.00420358 -4.10214e-20)
(0.396488 -0.00403449 0)
(0.400085 -0.00386998 0)
(0.403593 -0.00370959 0)
(0.407014 -0.00355267 -1.24713e-19)
(0.410348 -0.00339848 0)
(0.413595 -0.003246 -4.19052e-20)
(0.416754 -0.00309393 0)
(0.419822 -0.00294053 0)
(0.422797 -0.00278351 0)
(0.425672 -0.00261967 0)
(0.42844 -0.00244453 0)
(0.431088 -0.00225154 0)
(0.4336 -0.00203115 -8.58932e-20)
(0.435956 -0.00176947 0)
(0.438128 -0.0014463 -4.33849e-20)
(0.44007 -0.00103189 1.30757e-19)
(0.441716 -0.000476254 0)
(0.442942 0.000303089 0)
(0.443679 0.00148142 -8.87342e-20)
(0.443462 0.00331682 -8.96101e-20)
(0.443114 0.00650728 9.0453e-20)
(0.439469 0.0121325 9.30004e-20)
(-0.000652533 -0.0132568 -5.05747e-20)
(-0.00512982 -0.0078996 -3.33227e-20)
(-0.0109102 0.00242956 -1.24122e-20)
(-0.0174577 0.0121209 -4.35854e-21)
(-0.0246865 0.0209301 0)
(-0.0323934 0.0288939 6.35941e-21)
(-0.0405459 0.0360576 -2.89241e-21)
(-0.0491748 0.0424681 0)
(-0.0583017 0.0481908 -2.60306e-21)
(-0.0679187 0.0533089 0)
(-0.0779848 0.0579064 4.7341e-21)
(-0.0884301 0.0620482 0)
(-0.0991646 0.0657682 2.19065e-21)
(-0.110089 0.0690705 4.21319e-21)
(-0.121107 0.0719385 -4.05625e-21)
(-0.13213 0.0743465 0)
(-0.143082 0.0762703 -3.77567e-21)
(-0.153902 0.0776935 0)
(-0.164539 0.07861 0)
(-0.174958 0.0790261 -3.43476e-21)