/*--------------------------------*- C++ -*----------------------------------*\
  =========                 |
  \\      /  F ield         | OpenFOAM: The Open Source CFD Toolbox
   \\    /   O peration     | Website:  https://openfoam.org
    \\  /    A nd           | Version:  7
     \\/     M anipulation  |
\*---------------------------------------------------------------------------*/
FoamFile
{
    version     2.0;
    format      ascii;
    class       volScalarField;
    location    "0.07";
    object      T;
}
// * * * * * * * * * * * * * * * * * * * * * * * * * * * * * * * * * * * * * //

dimensions      [0 0 0 1 0 0 0];

internalField   nonuniform List<scalar> 
12225
(
1.00689
1.0041
1.00171
1.00089
1.00043
1.00012
0.999964
0.999897
0.999864
0.999842
0.999824
0.999792
0.99972
0.999536
0.999068
0.997945
0.994948
0.988069
0.995136
0.994812
0.996745
0.998334
0.999127
0.999464
0.999644
0.999763
0.999838
0.999878
0.999893
0.999885
0.999826
0.999657
0.999208
0.998135
0.995431
0.989185
0.999619
1.00005
1.00023
1.00028
1.0002
1.00008
0.999991
0.999952
0.999932
0.999915
0.999896
0.999865
0.999794
0.999624
0.999201
0.99821
0.995852
0.990826
1.00032
1.00017
0.999777
0.999749
0.999819
0.999835
0.999837
0.99985
0.999864
0.99987
0.999867
0.999848
0.99979
0.999639
0.999263
0.998391
0.996432
0.99251
1.00014
0.999947
0.999658
0.999701
0.999818
0.999857
0.999862
0.999871
0.999881
0.999885
0.999881
0.999862
0.999808
0.999671
0.999339
0.998596
0.997015
0.994032
1.00002
0.999951
0.999769
0.999773
0.999847
0.999872
0.999872
0.999877
0.999884
0.999887
0.999883
0.999866
0.999818
0.999697
0.999415
0.998802
0.997562
0.995336
0.999995
1
0.999864
0.999822
0.999858
0.999877
0.999879
0.999882
0.999888
0.999891
0.999888
0.999873
0.99983
0.999728
0.999494
0.999004
0.998054
0.996418
0.999995
1.00002
0.999917
0.999858
0.999872
0.999888
0.999889
0.999891
0.999895
0.999898
0.999895
0.999881
0.999845
0.99976
0.999572
0.99919
0.998479
0.997294
0.999995
1.00002
0.999951
0.999894
0.999893
0.999902
0.999902
0.999903
0.999905
0.999906
0.999903
0.999891
0.999861
0.999792
0.999646
0.999356
0.998834
0.997987
0.999995
1.00002
0.999976
0.999926
0.999916
0.999918
0.999916
0.999915
0.999916
0.999916
0.999912
0.999901
0.999877
0.999823
0.999711
0.999498
0.999123
0.998527
0.999996
1.00002
0.999992
0.999953
0.999938
0.999935
0.999931
0.999927
0.999927
0.999926
0.999922
0.999913
0.999894
0.999853
0.999769
0.999615
0.999352
0.998941
0.999997
1.00001
1
0.999971
0.999954
0.999949
0.999944
0.99994
0.999938
0.999935
0.999932
0.999924
0.999909
0.999877
0.999815
0.999703
0.999515
0.999225
0.999997
1.00001
1.00001
0.999984
0.999968
0.999962
0.999957
0.999952
0.999948
0.999945
0.999942
0.999936
0.999923
0.999899
0.999854
0.999774
0.999642
0.999441
0.999997
1.00001
1.00001
0.999993
0.999981
0.999974
0.999968
0.999964
0.99996
0.999956
0.999954
0.999949
0.999938
0.999921
0.999891
0.999837
0.999751
0.999622
0.999998
1.00001
1.00001
1
0.999991
0.999985
0.999981
0.999977
0.999973
0.999968
0.999965
0.999961
0.999954
0.999943
0.999922
0.999889
0.999838
0.999762
0.999998
1.00001
1.00001
1
0.999998
0.999994
0.999991
0.999988
0.999983
0.999979
0.999976
0.999973
0.999969
0.999962
0.999948
0.999929
0.999901
0.999861
0.999998
1.00001
1.00001
1.00001
1
0.999999
0.999998
0.999996
0.999992
0.999989
0.999985
0.999982
0.99998
0.999976
0.999969
0.999958
0.999944
0.999925
0.999999
1.00001
1.00001
1.00001
1
1
1
0.999998
0.999995
0.999993
0.999993
0.999991
0.999988
0.999984
0.999981
0.999977
0.999971
0.999962
1
1.00001
1.00001
1.00001
1
1
1
0.999999
0.999998
0.999996
0.999994
0.999992
0.99999
0.999988
0.999987
0.999984
0.99998
0.999976
0.999999
1.00001
1.00001
1.00001
1.00001
1
0.999998
0.999996
0.999993
0.999991
0.999989
0.999987
0.999985
0.999982
0.999981
0.999979
0.999976
0.999974
0.999997
1.00001
1.00001
1.00001
1
0.999998
0.999993
0.999988
0.999985
0.999982
0.999979
0.999976
0.999973
0.999972
0.999971
0.999969
0.999967
0.999966
0.999997
1.00001
1.00002
1.00001
0.999995
0.999988
0.999982
0.999975
0.999969
0.999965
0.999964
0.999963
0.99996
0.999959
0.999958
0.999958
0.999957
0.999955
0.999996
1.00003
1.00003
0.999996
0.999972
0.999966
0.999961
0.999956
0.999952
0.999949
0.999948
0.999947
0.999946
0.999945
0.999945
0.999944
0.999944
0.999944
0.999989
1.00005
1.00004
0.999983
0.999948
0.999938
0.999932
0.999929
0.999929
0.999931
0.999932
0.999933
0.999932
0.999933
0.999934
0.999934
0.999935
0.999935
0.99999
1.00004
0.999992
0.999937
0.999931
0.999929
0.999917
0.999909
0.999908
0.99991
0.999912
0.999915
0.999917
0.999918
0.999919
0.999921
0.999924
0.999925
1.00013
1.00009
0.999825
0.999756
0.999837
0.999896
0.999909
0.999912
0.999916
0.999918
0.99992
0.999921
0.999922
0.999922
0.999923
0.999924
0.999925
0.999926
1.0005
1.00053
0.999952
0.999665
0.999667
0.999718
0.999754
0.999789
0.99982
0.999844
0.999861
0.999875
0.999885
0.999893
0.9999
0.999905
0.999909
0.999915
1.00004
1.0008
1.00096
1.0008
1.00056
1.00034
1.00018
1.00009
1.00003
0.999996
0.99997
0.999954
0.999943
0.999935
0.99993
0.999925
0.999921
0.999921
0.994604
0.993791
0.995838
0.997661
0.998662
0.999144
0.999416
0.999594
0.99971
0.999782
0.999829
0.999863
0.999887
0.999905
0.999918
0.999928
0.999933
0.99993
1.00635
1.00419
1.00178
1.00096
1.00054
1.00023
1.00005
0.999977
0.999939
0.999915
0.9999
0.999892
0.999888
0.999886
0.999885
0.999886
0.999888
0.999899
0.65345
0.65344
0.65338
0.653292
0.65319
0.653073
0.652936
0.652782
0.652615
0.652436
0.652246
0.652045
0.651834
0.651614
0.651387
0.651155
0.650919
0.650681
0.650444
0.65021
0.649981
0.649759
0.649548
0.649349
0.649166
0.648999
0.648851
0.648721
0.64861
0.648519
0.648462
0.648463
0.648589
0.648953
0.649339
0.649584
0.649855
0.650111
0.65037
0.650639
0.650896
0.651215
0.651631
0.652039
0.652494
0.653037
0.653607
0.654214
0.654858
0.655536
0.656245
0.656985
0.657753
0.658548
0.659369
0.660213
0.66108
0.661968
0.662875
0.6638
0.664741
0.665698
0.666668
0.66765
0.668643
0.669646
0.670656
0.671673
0.672696
0.673722
0.674753
0.675785
0.676817
0.67785
0.678882
0.679912
0.680939
0.681963
0.682982
0.683996
0.685004
0.686006
0.687001
0.687988
0.688968
0.689938
0.6909
0.691853
0.692796
0.69373
0.694653
0.695566
0.696468
0.697358
0.698237
0.699103
0.699955
0.700791
0.701618
0.702434
0.703237
0.704028
0.704805
0.705569
0.706318
0.707054
0.707776
0.708483
0.709175
0.709853
0.710516
0.711164
0.711797
0.712414
0.713016
0.713602
0.714172
0.714725
0.715262
0.715782
0.716285
0.71677
0.717238
0.717686
0.718116
0.718526
0.718918
0.719291
0.719644
0.719978
0.720292
0.720586
0.72086
0.721114
0.721347
0.721559
0.721749
0.721919
0.722067
0.722193
0.722297
0.722378
0.722436
0.72247
0.722479
0.722463
0.722422
0.722355
0.722263
0.722143
0.721997
0.721824
0.721623
0.721394
0.721137
0.720852
0.720537
0.720194
0.719821
0.719418
0.718985
0.718518
0.718012
0.717455
0.716849
0.716209
0.715538
0.714838
0.714109
0.71335
0.712561
0.711741
0.710891
0.710009
0.709099
0.708157
0.707208
0.706152
0.705343
0.703428
0.654357
0.654336
0.654297
0.654231
0.654149
0.654049
0.65393
0.653792
0.653634
0.653457
0.653263
0.653056
0.652838
0.652611
0.652378
0.652141
0.651901
0.651662
0.651426
0.651195
0.650972
0.65076
0.650563
0.650385
0.65023
0.650104
0.650011
0.649958
0.649948
0.649985
0.650061
0.650163
0.650272
0.65023
0.650114
0.650161
0.6503
0.650523
0.650813
0.651148
0.651543
0.651963
0.652367
0.652835
0.653368
0.653907
0.654476
0.655077
0.655712
0.65638
0.657081
0.657811
0.658571
0.659358
0.66017
0.661007
0.661866
0.662746
0.663645
0.664563
0.665497
0.666446
0.667408
0.668383
0.669369
0.670364
0.671367
0.672377
0.673393
0.674413
0.675436
0.676461
0.677487
0.678514
0.679539
0.680563
0.681584
0.682601
0.683614
0.684622
0.685624
0.68662
0.687609
0.688591
0.689564
0.690529
0.691485
0.692432
0.693369
0.694296
0.695213
0.69612
0.697015
0.697898
0.698771
0.699632
0.700483
0.701323
0.70215
0.702962
0.703761
0.704545
0.705316
0.706074
0.706817
0.707546
0.708261
0.708961
0.709647
0.710318
0.710974
0.711615
0.71224
0.71285
0.713444
0.714022
0.714584
0.715129
0.715658
0.716169
0.716664
0.71714
0.717599
0.718038
0.718458
0.71886
0.719242
0.719605
0.719949
0.720272
0.720576
0.72086
0.721123
0.721366
0.721588
0.721788
0.721968
0.722125
0.722261
0.722375
0.722467
0.722535
0.72258
0.722601
0.722596
0.722567
0.722511
0.72243
0.722323
0.722188
0.722027
0.721837
0.72162
0.721375
0.721101
0.720799
0.720467
0.720106
0.719715
0.719293
0.71884
0.718355
0.717839
0.717295
0.71672
0.716113
0.715473
0.714802
0.7141
0.713367
0.712602
0.711805
0.710977
0.710118
0.70923
0.708312
0.707383
0.706373
0.705526
0.703998
0.656262
0.656198
0.656139
0.656068
0.655977
0.655865
0.655731
0.655576
0.655403
0.655212
0.655006
0.654787
0.654557
0.654318
0.654073
0.653823
0.653572
0.653322
0.653075
0.652833
0.652601
0.65238
0.652173
0.651985
0.651817
0.651672
0.651552
0.651458
0.651388
0.651341
0.651318
0.651323
0.651361
0.651417
0.651493
0.651613
0.651772
0.651976
0.65223
0.652533
0.65289
0.6533
0.65375
0.654235
0.654748
0.655285
0.655853
0.656452
0.657083
0.657745
0.658438
0.65916
0.659911
0.660688
0.661491
0.662318
0.663167
0.664037
0.664928
0.665836
0.66676
0.667701
0.668655
0.669621
0.670599
0.671586
0.672582
0.673585
0.674594
0.675608
0.676625
0.677645
0.678666
0.679687
0.680709
0.681728
0.682746
0.68376
0.68477
0.685775
0.686776
0.68777
0.688758
0.689738
0.690711
0.691676
0.692632
0.693579
0.694517
0.695445
0.696364
0.697271
0.698169
0.699055
0.699929
0.700792
0.701642
0.702481
0.703308
0.704122
0.704923
0.70571
0.706484
0.707245
0.707992
0.708724
0.709442
0.710146
0.710836
0.71151
0.71217
0.712814
0.713443
0.714056
0.714654
0.715235
0.7158
0.716349
0.716881
0.717396
0.717893
0.718373
0.718834
0.719276
0.719698
0.720102
0.720487
0.720852
0.721197
0.721523
0.721828
0.722113
0.722377
0.722621
0.722843
0.723044
0.723223
0.723381
0.723516
0.723629
0.723719
0.723786
0.723829
0.723847
0.72384
0.723807
0.723748
0.723663
0.723552
0.723413
0.723247
0.723053
0.72283
0.722579
0.7223
0.721991
0.721652
0.721284
0.720886
0.720457
0.719998
0.719507
0.718988
0.718443
0.717871
0.717267
0.716632
0.715965
0.715267
0.714536
0.713774
0.712979
0.712153
0.711295
0.710407
0.709488
0.708553
0.707547
0.706661
0.705353
0.659111
0.659006
0.65892
0.658832
0.658725
0.658593
0.658439
0.658265
0.658072
0.657863
0.657639
0.657402
0.657155
0.656899
0.656637
0.656371
0.656103
0.655837
0.655575
0.655319
0.655072
0.654836
0.654615
0.654411
0.654226
0.654062
0.653922
0.653805
0.653714
0.653651
0.653617
0.653617
0.653651
0.653712
0.653803
0.653932
0.6541
0.654306
0.654551
0.654837
0.655164
0.655533
0.65594
0.656387
0.656871
0.657389
0.65794
0.658523
0.659139
0.659786
0.660463
0.66117
0.661904
0.662665
0.663451
0.664262
0.665095
0.66595
0.666824
0.667717
0.668627
0.669553
0.670493
0.671446
0.67241
0.673385
0.674369
0.675361
0.676359
0.677363
0.678371
0.679382
0.680395
0.681409
0.682423
0.683437
0.684449
0.685458
0.686464
0.687467
0.688464
0.689456
0.690443
0.691422
0.692395
0.69336
0.694317
0.695266
0.696206
0.697136
0.698057
0.698969
0.69987
0.70076
0.70164
0.702508
0.703365
0.70421
0.705042
0.705862
0.70667
0.707465
0.708246
0.709014
0.709768
0.710509
0.711235
0.711947
0.712645
0.713328
0.713996
0.714649
0.715287
0.715909
0.716515
0.717105
0.717679
0.718237
0.718777
0.719301
0.719807
0.720295
0.720764
0.721214
0.721645
0.722056
0.722449
0.722821
0.723174
0.723506
0.723818
0.72411
0.72438
0.72463
0.724857
0.725063
0.725248
0.72541
0.725549
0.725666
0.725759
0.725829
0.725874
0.725894
0.725888
0.725857
0.725799
0.725715
0.725603
0.725464
0.725297
0.725101
0.724877
0.724624
0.724342
0.724031
0.72369
0.723318
0.722917
0.722485
0.722022
0.721529
0.721006
0.720455
0.719876
0.719266
0.718625
0.717952
0.717247
0.716511
0.715742
0.714942
0.714108
0.713243
0.712346
0.711416
0.710464
0.709448
0.70853
0.707314
0.662877
0.662731
0.662621
0.662517
0.662393
0.662242
0.662068
0.661872
0.661657
0.661425
0.661177
0.660917
0.660647
0.660367
0.660082
0.659794
0.659504
0.659216
0.658932
0.658654
0.658386
0.658129
0.657886
0.65766
0.657453
0.657268
0.657105
0.656968
0.656859
0.656778
0.656729
0.656713
0.656729
0.656776
0.656857
0.656973
0.657128
0.657321
0.657551
0.657821
0.658129
0.658475
0.658859
0.65928
0.659739
0.660232
0.66076
0.661321
0.661915
0.66254
0.663196
0.66388
0.664593
0.665332
0.666097
0.666886
0.667698
0.668532
0.669386
0.670259
0.67115
0.672057
0.672978
0.673914
0.674861
0.67582
0.676788
0.677765
0.678749
0.679739
0.680735
0.681734
0.682737
0.683741
0.684746
0.685751
0.686756
0.687759
0.688759
0.689756
0.69075
0.691738
0.692722
0.6937
0.694672
0.695636
0.696594
0.697544
0.698485
0.699418
0.700342
0.701257
0.702162
0.703057
0.703942
0.704815
0.705678
0.70653
0.707369
0.708197
0.709012
0.709815
0.710605
0.711382
0.712145
0.712895
0.713631
0.714353
0.71506
0.715754
0.716432
0.717095
0.717744
0.718376
0.718993
0.719594
0.720179
0.720747
0.721298
0.721832
0.722348
0.722846
0.723325
0.723785
0.724226
0.724647
0.725048
0.72543
0.725792
0.726133
0.726453
0.726752
0.72703
0.727286
0.727521
0.727733
0.727923
0.728091
0.728235
0.728356
0.728454
0.728527
0.728575
0.728597
0.728593
0.728563
0.728507
0.728422
0.728311
0.728171
0.728003
0.727806
0.727581
0.727325
0.727041
0.726726
0.726382
0.726006
0.725601
0.725164
0.724697
0.724199
0.72367
0.723113
0.722526
0.721908
0.721259
0.720578
0.719865
0.719121
0.718344
0.717535
0.716693
0.715817
0.714909
0.713967
0.712998
0.71197
0.711029
0.709833
0.66757
0.667393
0.667262
0.667143
0.667002
0.666831
0.666634
0.666414
0.666173
0.665915
0.665641
0.665354
0.665056
0.664749
0.664437
0.664121
0.663804
0.663489
0.663178
0.662874
0.662579
0.662297
0.662029
0.661778
0.661546
0.661336
0.66115
0.66099
0.660858
0.660756
0.660686
0.660647
0.660642
0.660668
0.660729
0.660826
0.66096
0.661131
0.66134
0.661587
0.661872
0.662194
0.662553
0.662949
0.663381
0.663848
0.664349
0.664883
0.665449
0.666047
0.666674
0.667332
0.668017
0.668729
0.669467
0.670229
0.671015
0.671823
0.672651
0.673499
0.674365
0.675248
0.676146
0.677059
0.677985
0.678923
0.679871
0.680828
0.681794
0.682767
0.683746
0.68473
0.685718
0.686709
0.687701
0.688695
0.689689
0.690682
0.691674
0.692664
0.693651
0.694634
0.695612
0.696586
0.697555
0.698518
0.699474
0.700423
0.701365
0.702299
0.703225
0.704143
0.705051
0.70595
0.706839
0.707717
0.708586
0.709443
0.71029
0.711125
0.711947
0.712758
0.713557
0.714343
0.715115
0.715875
0.716621
0.717353
0.718071
0.718775
0.719464
0.720138
0.720798
0.721442
0.72207
0.722682
0.723278
0.723858
0.72442
0.724965
0.725492
0.726001
0.726491
0.726961
0.727413
0.727844
0.728255
0.728647
0.729018
0.729368
0.729697
0.730004
0.73029
0.730554
0.730795
0.731014
0.73121
0.731383
0.731533
0.731658
0.73176
0.731836
0.731887
0.731911
0.731909
0.73188
0.731824
0.73174
0.731627
0.731487
0.731317
0.731118
0.73089
0.730631
0.730343
0.730024
0.729675
0.729294
0.728883
0.728441
0.727967
0.727463
0.726927
0.726362
0.725766
0.72514
0.724482
0.723792
0.72307
0.722317
0.72153
0.720712
0.71986
0.718974
0.718054
0.717098
0.716113
0.715071
0.714111
0.712898
0.673213
0.673018
0.672871
0.672736
0.672575
0.672382
0.672161
0.671915
0.671648
0.671361
0.671058
0.67074
0.670411
0.670074
0.66973
0.669383
0.669035
0.66869
0.668348
0.668014
0.66769
0.667379
0.667082
0.666803
0.666543
0.666306
0.666094
0.665907
0.66575
0.665622
0.665525
0.665461
0.665429
0.66543
0.665466
0.665538
0.665646
0.66579
0.665972
0.666191
0.666447
0.66674
0.667069
0.667434
0.667835
0.668269
0.668738
0.669239
0.669773
0.670337
0.670932
0.671556
0.672208
0.672888
0.673593
0.674323
0.675076
0.675852
0.67665
0.677467
0.678303
0.679157
0.680027
0.680912
0.681811
0.682722
0.683645
0.684579
0.685522
0.686472
0.68743
0.688394
0.689363
0.690336
0.691312
0.692291
0.69327
0.69425
0.69523
0.696208
0.697185
0.698159
0.69913
0.700097
0.70106
0.702018
0.70297
0.703917
0.704856
0.705789
0.706715
0.707633
0.708542
0.709443
0.710335
0.711217
0.71209
0.712952
0.713804
0.714645
0.715475
0.716293
0.717099
0.717893
0.718674
0.719442
0.720198
0.720939
0.721667
0.722382
0.723082
0.723767
0.724437
0.725092
0.725731
0.726355
0.726962
0.727553
0.728127
0.728683
0.729221
0.729741
0.730241
0.730723
0.731185
0.731626
0.732048
0.732449
0.732829
0.733189
0.733526
0.733842
0.734136
0.734407
0.734655
0.734881
0.735083
0.735262
0.735416
0.735546
0.735651
0.73573
0.735784
0.73581
0.735809
0.735781
0.735725
0.73564
0.735527
0.735384
0.735212
0.73501
0.734778
0.734516
0.734223
0.733899
0.733544
0.733157
0.732739
0.73229
0.731809
0.731297
0.730754
0.730179
0.729574
0.728938
0.72827
0.72757
0.726838
0.726074
0.725277
0.724448
0.723584
0.722687
0.721754
0.720784
0.719784
0.718726
0.717746
0.716501
0.679849
0.679643
0.679481
0.679327
0.679146
0.67893
0.678684
0.678411
0.678114
0.677797
0.677462
0.677112
0.67675
0.676379
0.676001
0.67562
0.675238
0.674859
0.674484
0.674117
0.67376
0.673416
0.673088
0.672778
0.672487
0.67222
0.671977
0.671761
0.671573
0.671415
0.671288
0.671193
0.671131
0.671102
0.671108
0.671148
0.671225
0.671338
0.671487
0.671672
0.671894
0.672152
0.672446
0.672775
0.673139
0.673536
0.673967
0.67443
0.674926
0.675452
0.676008
0.676593
0.677206
0.677847
0.678513
0.679205
0.679921
0.680659
0.681419
0.6822
0.683
0.683819
0.684654
0.685506
0.686372
0.687252
0.688144
0.689048
0.689962
0.690886
0.691817
0.692756
0.693701
0.694651
0.695605
0.696563
0.697524
0.698486
0.699448
0.700411
0.701374
0.702335
0.703294
0.70425
0.705203
0.706152
0.707097
0.708036
0.708971
0.709899
0.710821
0.711736
0.712644
0.713544
0.714436
0.715319
0.716193
0.717058
0.717913
0.718757
0.719591
0.720415
0.721226
0.722026
0.722814
0.72359
0.724353
0.725103
0.725839
0.726563
0.727272
0.727966
0.728646
0.729311
0.72996
0.730594
0.731212
0.731813
0.732397
0.732964
0.733512
0.734042
0.734553
0.735045
0.735516
0.735968
0.736399
0.736809
0.737199
0.737567
0.737912
0.738236
0.738537
0.738816
0.739071
0.739302
0.73951
0.739694
0.739853
0.739987
0.740095
0.740177
0.740232
0.74026
0.74026
0.740232
0.740175
0.740089
0.739974
0.739829
0.739654
0.739448
0.739212
0.738945
0.738646
0.738316
0.737955
0.737562
0.737136
0.736679
0.73619
0.735669
0.735116
0.734532
0.733916
0.733269
0.73259
0.731879
0.731136
0.730361
0.729553
0.728711
0.727836
0.726925
0.725979
0.724995
0.723979
0.722904
0.721905
0.720624
0.687525
0.687309
0.687132
0.68696
0.686757
0.686517
0.686244
0.685942
0.685615
0.685265
0.684897
0.684512
0.684114
0.683707
0.683293
0.682875
0.682457
0.682041
0.68163
0.681227
0.680834
0.680455
0.680092
0.679747
0.679423
0.679121
0.678845
0.678595
0.678373
0.67818
0.678019
0.677889
0.677792
0.677728
0.677698
0.677703
0.677742
0.677818
0.677929
0.678075
0.678258
0.678476
0.678728
0.679016
0.679337
0.679692
0.680079
0.680499
0.680949
0.681431
0.681942
0.682483
0.683051
0.683647
0.684269
0.684916
0.685587
0.686282
0.686999
0.687737
0.688495
0.689271
0.690066
0.690878
0.691705
0.692547
0.693402
0.69427
0.695149
0.696039
0.696938
0.697845
0.69876
0.699681
0.700608
0.70154
0.702475
0.703413
0.704353
0.705295
0.706237
0.70718
0.708121
0.709061
0.709999
0.710935
0.711867
0.712795
0.713719
0.714638
0.715552
0.71646
0.717362
0.718257
0.719144
0.720024
0.720896
0.721759
0.722614
0.723459
0.724294
0.725119
0.725933
0.726736
0.727527
0.728307
0.729075
0.729831
0.730573
0.731302
0.732018
0.73272
0.733407
0.734079
0.734737
0.735379
0.736005
0.736614
0.737207
0.737782
0.738339
0.738878
0.739398
0.739898
0.740378
0.740838
0.741277
0.741696
0.742093
0.742468
0.742821
0.743152
0.743459
0.743744
0.744004
0.744241
0.744454
0.744641
0.744804
0.744941
0.745052
0.745136
0.745192
0.745221
0.745221
0.745192
0.745134
0.745046
0.744928
0.74478
0.744601
0.744392
0.744151
0.743878
0.743573
0.743237
0.742868
0.742467
0.742033
0.741567
0.741069
0.740538
0.739975
0.739381
0.738754
0.738095
0.737405
0.736682
0.735927
0.735139
0.734319
0.733465
0.732577
0.731653
0.730693
0.729695
0.728664
0.727572
0.726553
0.725237
0.696291
0.696067
0.695875
0.695683
0.695456
0.69519
0.694889
0.694557
0.694197
0.693813
0.693409
0.692988
0.692553
0.692107
0.691654
0.691197
0.69074
0.690284
0.689834
0.689392
0.688961
0.688543
0.688142
0.687759
0.687397
0.687057
0.686743
0.686454
0.686194
0.685963
0.685763
0.685594
0.685457
0.685353
0.685282
0.685246
0.685244
0.685276
0.685344
0.685446
0.685584
0.685755
0.685961
0.686201
0.686474
0.68678
0.687118
0.687488
0.687889
0.688319
0.68878
0.689269
0.689786
0.69033
0.690901
0.691497
0.692118
0.692762
0.693428
0.694116
0.694825
0.695554
0.696301
0.697065
0.697847
0.698643
0.699455
0.700279
0.701116
0.701965
0.702824
0.703693
0.704571
0.705456
0.706348
0.707246
0.708149
0.709056
0.709967
0.710881
0.711797
0.712714
0.713631
0.714548
0.715465
0.71638
0.717294
0.718204
0.719112
0.720016
0.720916
0.721811
0.722701
0.723585
0.724463
0.725335
0.726199
0.727056
0.727905
0.728745
0.729576
0.730398
0.73121
0.732012
0.732803
0.733583
0.734351
0.735108
0.735852
0.736584
0.737303
0.738008
0.738699
0.739376
0.740038
0.740685
0.741316
0.741931
0.74253
0.743111
0.743674
0.744219
0.744744
0.745251
0.745737
0.746203
0.746649
0.747073
0.747476
0.747857
0.748215
0.748551
0.748863
0.749152
0.749417
0.749658
0.749873
0.750064
0.750229
0.750368
0.75048
0.750564
0.750621
0.750649
0.750648
0.750618
0.750558
0.750467
0.750346
0.750195
0.750011
0.749796
0.74955
0.749271
0.748959
0.748615
0.748239
0.747829
0.747387
0.746912
0.746403
0.745862
0.745289
0.744683
0.744044
0.743374
0.742671
0.741936
0.741168
0.740368
0.739534
0.738667
0.737766
0.736829
0.735856
0.734844
0.733798
0.73269
0.731653
0.730305
0.706205
0.705974
0.705766
0.705551
0.705299
0.705005
0.704673
0.704309
0.703915
0.703495
0.703053
0.702593
0.702117
0.701631
0.701136
0.700638
0.700138
0.69964
0.699147
0.698663
0.69819
0.69773
0.697287
0.696862
0.696458
0.696076
0.69572
0.695389
0.695086
0.694812
0.694568
0.694355
0.694173
0.694024
0.693908
0.693825
0.693776
0.69376
0.693779
0.693831
0.693917
0.694037
0.694191
0.694377
0.694596
0.694847
0.695129
0.695443
0.695787
0.696161
0.696564
0.696995
0.697454
0.69794
0.698453
0.698991
0.699553
0.700139
0.700748
0.701379
0.702032
0.702704
0.703396
0.704105
0.704833
0.705576
0.706335
0.707109
0.707896
0.708696
0.709507
0.710329
0.711161
0.712002
0.712851
0.713708
0.714571
0.715439
0.716313
0.71719
0.718071
0.718955
0.719841
0.720727
0.721615
0.722502
0.723389
0.724275
0.725158
0.72604
0.726919
0.727794
0.728665
0.729532
0.730394
0.73125
0.7321
0.732944
0.733781
0.73461
0.735432
0.736245
0.737049
0.737843
0.738628
0.739403
0.740167
0.740919
0.741661
0.74239
0.743107
0.74381
0.744501
0.745178
0.74584
0.746488
0.74712
0.747737
0.748337
0.74892
0.749485
0.750033
0.750561
0.751071
0.75156
0.75203
0.752478
0.752906
0.753312
0.753696
0.754057
0.754395
0.75471
0.755001
0.755268
0.75551
0.755727
0.755919
0.756085
0.756224
0.756335
0.756419
0.756474
0.756501
0.756498
0.756465
0.756401
0.756307
0.756182
0.756025
0.755837
0.755616
0.755363
0.755077
0.754758
0.754406
0.754021
0.753603
0.753151
0.752666
0.752147
0.751596
0.751011
0.750393
0.749743
0.74906
0.748344
0.747596
0.746816
0.746002
0.745156
0.744276
0.743362
0.742412
0.741426
0.7404
0.739341
0.738218
0.737164
0.735788
0.717333
0.717094
0.716868
0.716628
0.716347
0.716023
0.715658
0.715259
0.714827
0.714368
0.713885
0.713383
0.712864
0.712333
0.711794
0.71125
0.710704
0.71016
0.709622
0.709091
0.708572
0.708066
0.707576
0.707105
0.706655
0.706227
0.705824
0.705446
0.705096
0.704774
0.704481
0.704219
0.703988
0.703789
0.703621
0.703486
0.703384
0.703314
0.703278
0.703275
0.703304
0.703367
0.703461
0.703588
0.703746
0.703936
0.704157
0.704407
0.704688
0.704998
0.705336
0.705703
0.706097
0.706517
0.706964
0.707436
0.707933
0.708453
0.708997
0.709563
0.71015
0.710758
0.711386
0.712032
0.712697
0.713379
0.714077
0.71479
0.715518
0.71626
0.717014
0.717781
0.718558
0.719346
0.720143
0.720948
0.721762
0.722582
0.723409
0.724241
0.725078
0.725919
0.726764
0.727611
0.72846
0.729311
0.730162
0.731014
0.731865
0.732716
0.733564
0.734411
0.735256
0.736097
0.736934
0.737767
0.738596
0.739419
0.740236
0.741047
0.741851
0.742648
0.743437
0.744217
0.744989
0.745751
0.746504
0.747247
0.747978
0.748699
0.749408
0.750105
0.750789
0.75146
0.752117
0.75276
0.753388
0.754001
0.754598
0.755179
0.755742
0.756287
0.756815
0.757323
0.757811
0.75828
0.758728
0.759155
0.759561
0.759944
0.760305
0.760643
0.760957
0.761248
0.761514
0.761755
0.761971
0.762162
0.762326
0.762463
0.762572
0.762654
0.762706
0.762729
0.762723
0.762686
0.762618
0.762519
0.762388
0.762225
0.762031
0.761803
0.761543
0.761249
0.760922
0.760562
0.760168
0.75974
0.759278
0.758783
0.758253
0.757691
0.757094
0.756465
0.755802
0.755107
0.754379
0.753618
0.752825
0.751998
0.751139
0.750246
0.749319
0.748357
0.747359
0.74632
0.745249
0.744112
0.743044
0.741645
0.729746
0.729497
0.72925
0.728982
0.72867
0.728311
0.72791
0.727471
0.726998
0.726495
0.725967
0.725417
0.724851
0.724271
0.723682
0.723088
0.722492
0.721897
0.721308
0.720727
0.720157
0.7196
0.71906
0.718538
0.718036
0.717557
0.717102
0.716672
0.716269
0.715894
0.715548
0.715232
0.714945
0.71469
0.714466
0.714273
0.714112
0.713983
0.713886
0.71382
0.713787
0.713785
0.713815
0.713875
0.713967
0.714088
0.71424
0.714421
0.714631
0.71487
0.715136
0.715431
0.715751
0.716099
0.716472
0.71687
0.717292
0.717739
0.718208
0.7187
0.719214
0.719748
0.720303
0.720877
0.721469
0.722079
0.722707
0.72335
0.724009
0.724683
0.72537
0.72607
0.726783
0.727507
0.728241
0.728986
0.729739
0.730501
0.731271
0.732047
0.73283
0.733618
0.734411
0.735208
0.736009
0.736813
0.737619
0.738426
0.739235
0.740045
0.740854
0.741663
0.74247
0.743276
0.74408
0.744881
0.745678
0.746471
0.74726
0.748044
0.748822
0.749594
0.75036
0.751118
0.751869
0.752612
0.753345
0.75407
0.754785
0.75549
0.756183
0.756866
0.757537
0.758195
0.758841
0.759473
0.760092
0.760695
0.761283
0.761855
0.762411
0.762949
0.763469
0.763971
0.764454
0.764917
0.76536
0.765783
0.766184
0.766563
0.76692
0.767253
0.767564
0.76785
0.768112
0.76835
0.768562
0.768749
0.768909
0.769041
0.769146
0.769222
0.76927
0.769288
0.769276
0.769233
0.769159
0.769054
0.768916
0.768747
0.768544
0.768309
0.768041
0.767739
0.767403
0.767033
0.76663
0.766192
0.76572
0.765214
0.764674
0.7641
0.763492
0.762851
0.762176
0.761468
0.760728
0.759954
0.759148
0.758309
0.757437
0.756532
0.755593
0.754619
0.753609
0.752559
0.751477
0.750328
0.749248
0.747831
0.743525
0.743263
0.742991
0.742691
0.742343
0.741944
0.7415
0.741015
0.740493
0.73994
0.73936
0.738757
0.738136
0.737501
0.736856
0.736205
0.735553
0.734902
0.734256
0.733618
0.732992
0.732379
0.731782
0.731203
0.730645
0.730109
0.729597
0.72911
0.728649
0.728215
0.72781
0.727433
0.727086
0.726768
0.726481
0.726225
0.725999
0.725804
0.725639
0.725506
0.725403
0.72533
0.725288
0.725276
0.725293
0.725339
0.725415
0.725518
0.72565
0.72581
0.725996
0.72621
0.72645
0.726715
0.727006
0.727321
0.72766
0.728023
0.728409
0.728818
0.729248
0.729699
0.73017
0.730661
0.731171
0.7317
0.732246
0.732809
0.733388
0.733982
0.734591
0.735214
0.735851
0.7365
0.73716
0.737832
0.738514
0.739206
0.739907
0.740616
0.741333
0.742057
0.742787
0.743523
0.744264
0.74501
0.745759
0.746512
0.747267
0.748024
0.748783
0.749543
0.750303
0.751064
0.751823
0.752581
0.753337
0.754091
0.754841
0.755588
0.756331
0.757069
0.757802
0.758529
0.759249
0.759963
0.760669
0.761367
0.762057
0.762737
0.763408
0.764069
0.764719
0.765358
0.765984
0.766599
0.7672
0.767787
0.768359
0.768917
0.769458
0.769983
0.770491
0.770981
0.771452
0.771905
0.772337
0.77275
0.773142
0.773512
0.77386
0.774185
0.774487
0.774766
0.775021
0.775251
0.775456
0.775635
0.775787
0.775913
0.77601
0.776079
0.77612
0.77613
0.77611
0.77606
0.775978
0.775865
0.775719
0.775541
0.775331
0.775087
0.774809
0.774498
0.774152
0.773773
0.773359
0.772912
0.772429
0.771912
0.771361
0.770776
0.770156
0.769503
0.768816
0.768096
0.767344
0.766558
0.765739
0.764888
0.764004
0.763087
0.762137
0.761152
0.760131
0.759072
0.75798
0.756822
0.755731
0.754301
0.758759
0.75848
0.758179
0.75784
0.757447
0.757
0.756504
0.755963
0.755384
0.754771
0.754128
0.753462
0.752777
0.752077
0.751368
0.750652
0.749935
0.74922
0.74851
0.747809
0.747119
0.746443
0.745783
0.745142
0.744521
0.743922
0.743346
0.742795
0.74227
0.741771
0.7413
0.740857
0.740443
0.740057
0.739701
0.739374
0.739076
0.738808
0.73857
0.738361
0.738181
0.73803
0.737909
0.737816
0.737751
0.737714
0.737705
0.737723
0.737769
0.73784
0.737939
0.738063
0.738212
0.738386
0.738585
0.738808
0.739055
0.739325
0.739617
0.739931
0.740267
0.740624
0.741002
0.741399
0.741816
0.742251
0.742704
0.743175
0.743662
0.744166
0.744685
0.745219
0.745767
0.746329
0.746903
0.74749
0.748089
0.748698
0.749318
0.749948
0.750586
0.751234
0.751889
0.752551
0.75322
0.753895
0.754576
0.755261
0.755951
0.756645
0.757341
0.758041
0.758742
0.759445
0.760149
0.760853
0.761557
0.76226
0.762961
0.763661
0.764357
0.765051
0.765741
0.766426
0.767107
0.767782
0.768451
0.769114
0.769769
0.770416
0.771055
0.771685
0.772306
0.772916
0.773516
0.774104
0.77468
0.775244
0.775793
0.776329
0.776849
0.777354
0.777843
0.778314
0.778768
0.779204
0.779621
0.780018
0.780395
0.78075
0.781085
0.781397
0.781687
0.781953
0.782196
0.782415
0.782609
0.782777
0.782918
0.783033
0.78312
0.78318
0.78321
0.78321
0.78318
0.78312
0.783029
0.782906
0.78275
0.782563
0.782342
0.782088
0.7818
0.781479
0.781123
0.780733
0.780309
0.779851
0.779357
0.778829
0.778267
0.77767
0.777039
0.776375
0.775676
0.774944
0.77418
0.773382
0.772552
0.771689
0.770794
0.769866
0.768905
0.76791
0.76688
0.765812
0.764712
0.763547
0.762448
0.76101
0.776084
0.775778
0.775437
0.775047
0.774597
0.774086
0.77352
0.772906
0.77225
0.771558
0.770836
0.770088
0.769322
0.768542
0.767752
0.766957
0.766161
0.765368
0.764582
0.763805
0.763039
0.762289
0.761555
0.76084
0.760146
0.759473
0.758824
0.758199
0.757599
0.757026
0.756479
0.755959
0.755467
0.755002
0.754566
0.754157
0.753777
0.753425
0.753101
0.752805
0.752537
0.752296
0.752083
0.751897
0.751737
0.751605
0.751499
0.751419
0.751364
0.751335
0.751331
0.751352
0.751397
0.751466
0.751559
0.751675
0.751813
0.751975
0.752158
0.752364
0.75259
0.752838
0.753105
0.753393
0.7537
0.754026
0.75437
0.754732
0.755111
0.755508
0.75592
0.756348
0.756791
0.757249