/*--------------------------------*- C++ -*----------------------------------*\
  =========                 |
  \\      /  F ield         | OpenFOAM: The Open Source CFD Toolbox
   \\    /   O peration     | Website:  https://openfoam.org
    \\  /    A nd           | Version:  7
     \\/     M anipulation  |
\*---------------------------------------------------------------------------*/
FoamFile
{
    version     2.0;
    format      ascii;
    class       surfaceScalarField;
    location    "3.7";
    object      alphaPhi0.water;
}
// * * * * * * * * * * * * * * * * * * * * * * * * * * * * * * * * * * * * * //

dimensions      [0 3 -1 0 0 0 0];

internalField   nonuniform List<scalar> 
11840
(
0
0
0
0
0
0
0
0
0
0
0
0
0
0
0
0
0
0
0
0
0
0
0
0
0
0
0
0
0
0
0
0
0
0
0
0
0
0
0
0
0
0
0
0
0
0
0
0
0
0
0
0
0
0
0
0
0
0
0
0
0
0
0
0
0
0
0
0
0
0
0
0
0
0
0
0
0
0
0
0
0
0
0
0
0
0
0
0
0
0
0
0
0
0
0
0
0
0
0
0
0
0
0
0
0
0
0
0
0
0
0
0
0
0
0
0
0
0
0
0
0
0
0
0
0
0
0
0
0
0
0
0
0
0
0
0
0
0
0
0
0
0
0
0
0
0
0
0
0
0
0
0
0
0
0
0
0
0
0
0
0
0
0
0
0
0
0
0
0
0
0
0
0
0
0
0
0
0
0
0
0
0
0
0
0
0
0
0
0
0
0
0
0
0
0
0
0
0
0
0
0
0
0
0
0
0
0
0
0
0
0
0
0
0
0
0
0
0
0
0
0
0
0
0
0
0
0
0
0
0
0
0
0
0
0
0
0
9.5426233499368e-218
4.7713114237081e-218
1.0038572317992e-216
5.0192861589958e-217
5.5074541032554e-216
2.7537270515652e-216
2.0910827226082e-215
1.0455413750143e-215
3.8019692608202e-216
1.7108856008311e-215
1.8408808166236e-196
9.204404083118e-197
4.4677132862827e-196
2.2026849832603e-196
8.1231150673309e-197
3.6554017791168e-196
1.4769300137409e-197
6.646185049297e-197
2.6853273169254e-198
1.2083972863642e-197
2.0938825737317e-195
0
1.6314841638235e-194
-4.8131957332534e-221
2.9663348436562e-195
1.3348506792616e-194
3.9782832823141e-195
1.989141641157e-195
1.3445090228894e-194
0
5.6823320170146e-194
0
2.0564182111014e-193
0
3.7389422021462e-194
1.6825239908977e-193
6.7980767314206e-195
3.0591345290073e-194
2.1958370829626e-194
0
6.5179791242717e-194
0
1.1850871135047e-194
5.3328920107668e-194
3.6577040425197e-194
0
6.6503709863996e-195
2.9926669438798e-194
7.2991037418789e-195
3.6495518709395e-195
1.3271097712508e-195
5.9719939706281e-195
1.6894809837744e-195
7.6312339445787e-196
4.7750131724823e-195
0
8.6818421317861e-196
3.9068289593037e-195
2.0623415746036e-195
0
3.7497119538247e-196
1.6873703792211e-195
6.7977273255335e-196
2.4442439116262e-196
1.3727644680605e-195
0
2.4959353964737e-196
1.1231709284131e-195
4.2477304634608e-196
0
7.7231462972016e-197
3.4754158337406e-196
1.4042084176731e-197
6.3189378795285e-197
2.2327462489165e-197
0
4.0595386343937e-198
1.8267923854771e-197
6.2330057901536e-198
0
1.1332737800283e-198
5.096445843673e-198
1.566448189165e-198
1.3184396139526e-199
2.8480876166888e-199
1.281639427497e-198
2.4755300372343e-199
1.2377650186172e-199
4.5009637041703e-200
2.0254336668171e-199
3.6288445331634e-200
1.8144222665817e-200
2.8640936223225e-200
1.4320468111612e-200
5.2074429963345e-201
2.343349336226e-200
4.0045401608904e-201
2.0022700804452e-201
4.8118279513635e-201
0
3.5244663624592e-201
1.7622331812296e-201
4.1555543820371e-201
0
7.5555950929145e-202
3.3999937734124e-201
8.8905924734921e-202
0
1.6164726782826e-202
7.2741193286975e-202
1.1794848325787e-202
5.8974241628934e-203
2.1445510784403e-203
9.6503053325182e-203
2.4607425004977e-203
0
1.8186060682671e-203
0
3.3601940251904e-204
1.4800549564721e-203
3.4683220615741e-204
0
6.4340824127182e-205
2.8320717719304e-204
8.2506289095656e-205
0
6.2694275175507e-205
3.1347137587754e-205
7.0283157056708e-205
0
7.2580287647032e-205
0
2.3271069808684e-205
5.2852038328216e-205
2.5902394562165e-205
0
1.828161194769e-205
9.1408059738453e-206
1.9923009567844e-205
0
1.3612414040582e-205
7.366710928058e-206
9.4672753757431e-206
4.7336376878715e-206
9.817358136268e-206
0
6.5908937857143e-206
3.2954468928572e-206
6.3711823302468e-206
0
4.0918031934128e-206
2.0462737075309e-206
3.6750469194236e-206
0
3.1633536459356e-206
0
1.8934912239895e-206
9.4674561199475e-207
1.5308720408005e-206
0
1.0004461041719e-206
0
0
0
0
0
0
0
0
0
0
0
0
0
0
0
0
0
0
0
0
0
0
0
0
0
0
0
0
0
0
0
0
0
0
0
0
0
0
1.3092031981948e-162
6.5460159909739e-163
7.2013333883947e-159
3.6006666941974e-159
6.5466664865747e-159
6.5466681787716e-160
2.0020830951831e-148
1.1547979892776e-148
2.0963727166572e-132
0
3.0701738831284e-131
7.0756716914811e-131
3.0701738831284e-131
0
1.9178365696157e-129
0
8.0360025390297e-131
9.6398736259246e-130
4.8041042081559e-131
3.2254555056522e-131
1.3661629878008e-130
5.1082288182644e-131
2.4652353781914e-130
9.2852409435585e-131
7.0035451193781e-130
3.4572829852598e-130
3.5024932159512e-131
6.5118965099108e-130
2.9387189789637e-131
1.2532762005778e-131
4.2926786376676e-131
1.469370587055e-131
3.5285784401868e-130
0
1.2742806985656e-128
0
3.9381072223796e-130
1.2348996263418e-128
5.5936965311256e-130
0
5.4923544174223e-127
0
5.4923544174223e-127
0
9.1086865587435e-126
0
2.5143003473289e-125
1.1156072793515e-125
8.2769122418501e-127
2.3607751538581e-125
5.150855688003e-127
4.0840393027655e-127
3.4488077680176e-127
7.4411102496862e-128
7.8901882761596e-126
2.9078224269714e-126
3.4619545533565e-125
5.2417241881531e-126
1.0622095973993e-124
0
1.0901806410386e-124
5.3655143846464e-125
9.9225999356363e-125
9.7920647474936e-126
9.0758478499466e-125
0
4.8501520428555e-125
4.4995543134694e-125
3.8181226177946e-125
2.2087615874445e-125
3.500252240617e-125
1.7501210770226e-125
4.1000426214169e-126
3.0979188908488e-125
9.8208042838621e-126
0
4.7631187890068e-127
1.2798872223615e-125
5.2576378061717e-127
0
5.7794471260127e-128
3.0929306714428e-127
4.9893974927686e-128
6.0076167988052e-129
5.8172280863365e-128
0
1.9252919639627e-129
5.6246988899403e-128
1.9698970383205e-129
0
3.5816309787646e-130
1.6117339404441e-129
6.5120563250267e-131
2.930425346262e-130
7.4363320364567e-131
0
2.3145363705115e-132
7.2048783994055e-131
2.314687607226e-132
0
6.7123788768214e-134
2.2475638184578e-132
6.7931067696213e-134
0
6.7931067696213e-134
0
5.1197593498326e-134
0
5.119604134556e-134
0
9.3083711537383e-135
4.1887670191822e-134
8.3343111988615e-136
8.4749400338522e-135
3.0319771734058e-136
0
3.0316070903345e-136
0
1.1457283338233e-137
2.9170342569521e-136
1.1097456140137e-137
0
1.7487882799841e-138
9.3486678601533e-138
1.3983421405116e-138
0
3.9460577084022e-140
1.3588815634276e-138
3.945504634131e-140
0
3.1203726754481e-140
0
2.3495493062652e-140
0
1.7331950738968e-140
0
4.8352680810928e-142
1.6848423930859e-140
4.8342925648383e-142
0
3.501326358735e-142
0
5.1795411479461e-143
2.9833722439404e-142
3.773085670926e-143
0
1.1594405330026e-144
3.6571416176258e-143
9.5619737161696e-145
0
6.4722037662817e-145
0
3.7826718879389e-145
0
2.5132938530289e-145
0
7.3925501854431e-147
2.4393683511745e-145
6.8022986322068e-147
0
0
0
0
0
0
0
0
0
0
0
0
0
0
0
0
0
0
0
0
0
0
0
0
0
0
0
0
0
0
0
0
0
0
0
0
-1.3580846415749e-100
-6.7904232078743e-101
-4.0280223821134e-99
-2.0140111910567e-99
-6.7077729698072e-98
-3.3538864849036e-98
-7.9224970721161e-97
-3.961248536058e-97
-7.146270872969e-96
-3.5731354364845e-96
-5.171084260263e-95
-2.5855421301315e-95
2.9437920992412e-85
1.5764395117746e-85
1.9239792879264e-84
1.132462669683e-84
6.1714048484533e-83
3.8091926162063e-83
9.734610475588e-83
1.0146865520359e-82
1.7744523494889e-83
7.5963346479549e-83
3.3242066769036e-84
1.4420307352754e-83
6.0794516798359e-85
2.7162615089155e-84
1.1053529513471e-85
4.9740987284888e-85
2.0097359213355e-86
9.043793592136e-86
3.6540656193569e-87
1.6443293593998e-86
6.6437556769182e-88
2.9896900516651e-87
3.6555856554023e-88
2.9881700215159e-88
6.518604698128e-78
2.7635739376302e-78
6.1371835958821e-76
2.6806667195013e-76
3.7849171414563e-75
2.4319450651146e-75
2.6936561544396e-74
1.5453905459228e-74
1.9915424927522e-73
1.3238624590824e-73
2.8914390235736e-73
2.9855441963007e-73
1.9957623733927e-73
2.3205177639494e-73
3.9541746702309e-74
1.6003448112575e-73
7.174126176652e-75
3.236762043925e-74
1.3066903463026e-75
5.8674358303494e-75
2.3765221941622e-76
1.0690381268863e-75
2.1606035817387e-77
2.1604618359883e-76
9.0999220901623e-75
2.2566109745053e-74
4.9537571871792e-73
6.7917593091201e-73
9.0045884121651e-74
4.0532983459627e-73
8.1884731266274e-75
8.1857410995023e-74
3.4185482486395e-72
0
6.4662384529855e-73
2.9100622789907e-72
1.1757589073194e-73
5.2904795942622e-73
1.7947195539695e-74
9.9628695192242e-74
1.9434114059831e-75
1.6003784133712e-74
2.5935418256293e-69
0
2.3968026491078e-70
2.1571223841969e-69
2.756681240569e-69
1.483682460275e-69
3.0129510961572e-70
2.6380997963815e-69
1.180605428629e-70
9.2502250643419e-70
2.9739694602651e-68
1.0385777221925e-68
5.2984525371296e-68
5.3412568569899e-68
1.5536105088954e-67
9.8664883608286e-68
3.2248791562122e-67
2.6483731915908e-67
6.6503052537468e-67
5.2782003524282e-67
1.6831620152664e-66
1.2209315695757e-66
3.343550688453e-66
2.6749171981067e-66
7.8935574741689e-66
5.7634456558227e-66
1.5413664030528e-65
1.2721771094927e-65
2.8482812643002e-65
2.3388105254567e-65
6.0914510930046e-65
4.6471855655656e-65
1.0360946635098e-64
8.7243866946453e-65
1.9063901609526e-64
1.5051168034929e-64
2.8739667305502e-64
2.6149029926134e-64
3.681470179776e-64
3.4418878724866e-64
4.5074117835356e-64
4.3509696953677e-64
4.5330340757966e-64
4.8101741762808e-64
4.479684869561e-64
4.7915466841657e-64
4.3356872759209e-64
4.6844661618161e-64
4.0859236382718e-64
4.4738842923439e-64
3.7261255788365e-64
4.1016731357523e-64
3.3512605101676e-64
3.5584254209779e-64
2.6450607109202e-64
2.996946458996e-64
1.5885501723389e-64
2.1689275845801e-64
7.3236811662062e-65
1.1361538796522e-64
1.872618936066e-65
4.5950911887563e-65
2.7528350523992e-66
1.1059755282508e-65
5.8100550415496e-67
1.6188200870557e-66
1.3963680025366e-67
3.7721977293906e-67
2.5919880979899e-68
1.0969151746436e-67
4.2363217753628e-69
2.1082697789693e-68
1.0911373424506e-69
2.8092520839945e-69
2.7973247488271e-70
6.95561713503e-70
7.0836817189585e-71
1.7556350432831e-70
1.7809480649609e-71
4.4275604955125e-71
4.4798589301663e-72
1.1120607879878e-71
1.1005352642857e-72
2.8165164144469e-72
3.2855745139945e-73
6.5318434530522e-73
2.6929775777766e-73
0
0
0
0
0
0
0
0
0
0
0
0
0
0
0
0
0
0
4.6255562957798e-89
2.3269103025511e-89
4.2832389287694e-87
2.1980171445263e-87
2.1422478780306e-85
1.0970732112554e-85
8.2091225212461e-84
4.2441612325164e-84
2.0351012203364e-82
1.0739864154666e-82
4.0048443739705e-81
2.1222762234466e-81
7.4960003013627e-80
3.9933845808957e-80
1.095736076132e-78
5.9272453716019e-79
1.9711614380356e-77
1.0460559162358e-77
3.0131056255863e-76
1.6391447917569e-76
3.550838471821e-75
1.9275928214971e-75
4.0326270284211e-74
2.2208080162796e-74
4.1063734445961e-73
2.2745318936272e-73
4.5721412004019e-72
2.5009238705978e-72
3.9752555143426e-71
2.2441104717217e-71
2.9566756259127e-70
1.6906952840169e-70
2.0745265841597e-69
1.1826716876948e-69
1.7603477449711e-68
1.0009060972246e-68
1.4002630227338e-67
7.8217884702621e-68
1.5384133494339e-66
9.1431931614445e-67
5.5335936038123e-66
3.4925885114873e-66
2.3171717815498e-65
1.3554922957072e-65
1.4390465808236e-64
1.1280734481963e-64
2.1702678600997e-64
1.7167986484334e-64
1.519151726723e-63
1.2397413248864e-63
2.1635722976548e-63
1.7866860270422e-63
7.7141709088341e-63
4.3755576172461e-63
9.3193999968955e-62
5.9507583594547e-62
1.8732166053014e-61
1.8513470451637e-61
1.2128433075459e-60
6.4719358889756e-61
5.3340246995986e-60
4.0822980222769e-60
2.6521628817591e-59
1.4835668422421e-59
1.47573697692e-58
9.0407965956767e-59
1.0162761341511e-57
7.2485681956526e-58
1.4617110257987e-57
1.3636866759294e-57
2.4119337888689e-57
1.7715182051793e-57
1.9900639314997e-57
1.9371997639371e-57
1.0842598003695e-57
1.4274103523747e-57
4.6024178717135e-58
6.2401801319814e-58
9.72172000332e-58
0
1.2036253655208e-55
5.5465087977987e-56
3.7605760129001e-55
1.5660730723196e-55
4.7379791080289e-55
5.7422679318387e-55
3.9649700902059e-55
7.7300901782299e-56
6.162989556307e-54
2.9233364016634e-54
1.8947034347595e-53
1.4825491751293e-53
5.6264335264387e-54
1.3320600821156e-53
3.695845586769e-53
2.0045735325692e-53
9.5409655870651e-54
2.7417490280625e-53
2.4489533455843e-53
1.3363823550461e-53
4.0196842444434e-54
2.0469849211399e-53
4.0196842444434e-54
0
3.090159171952e-53
1.3363823550461e-53
5.720033963879e-54
2.5181557755641e-53
1.5822889624069e-53
0
2.8936814497566e-54
1.2929208174314e-53
5.2687153161791e-55
2.36680991814e-54
1.0580481616321e-54
0
1.9242126594586e-55
8.656268956936e-55
3.1148103154118e-55
0
5.1990318669527e-56
2.5949071290622e-55
5.1990318726193e-56
0
3.0906482334104e-55
0
3.090648235682e-55
0
3.3734921983845e-55
0
5.6625998052637e-56
2.8072322242845e-55
1.0298828440985e-56
4.6327170399112e-56
1.466785848272e-56
0
1.4668186953032e-56
0
4.8508962397004e-58
1.4183098305404e-56
4.8510181095126e-58
0
2.5343031429241e-59
4.5975967947433e-58
2.5124761091762e-59
0
2.7317603054812e-59
0
3.0067183906198e-59
0
3.0067521438872e-59
0
4.1555098355803e-59
0
4.1663952680351e-59
0
8.9589504018919e-61
4.0768064750546e-59
9.8464725558336e-61
0
9.8220339285398e-61
0
1.0240347988493e-61
8.7979999914998e-61
1.0240349658574e-61
0
1.0164805974703e-61
0
6.8058788598532e-62
4.9784122222889e-62
3.8681147296337e-62
1.2446030555722e-62
1.4425538850319e-62
1.5557538194653e-62
8.8427351078962e-63
4.6672614583958e-63
4.2318559364366e-63
3.5004460937969e-63
2.3092299177889e-63
1.7502230468984e-63
2.1391615017648e-63
0
0
0
0
0
0
0
0
0
0
0
0
0
0
7.5679371440715e-80
3.7868071899067e-80
1.2619122483162e-77
6.3452889770883e-78
1.0358623547989e-75
5.237390235845e-76
5.5921302568698e-74
2.8440219812663e-74
2.237121647865e-72
1.1446784370305e-72
7.0850257243389e-71
3.6478472141746e-71
1.8524401200718e-69
9.5982231023528e-70
4.1137804163165e-68
2.1453278234695e-68
7.9152156487857e-67
4.155194375339e-67
1.3385145639834e-65
7.0747935892583e-66
2.0112728512008e-64
1.0705633250528e-64
2.7104044983208e-63
1.4530894552446e-63
3.3049858792101e-62
1.7846690502047e-62
3.6806086522908e-61
2.0015640383685e-61
3.7814876602913e-60
2.0701952768239e-60
3.6226827652419e-59
1.9954087107913e-59
3.2701565405298e-58
1.8110833443614e-58
2.8068026534441e-57
1.5620465587238e-57
2.3055241375433e-56
1.288847033751e-56
1.8183190856372e-55
1.0209818727235e-55
1.3774592113862e-54
7.7702406957326e-55
1.0006891660963e-53
5.6734291056403e-54
6.9541834419037e-53
3.9647413364257e-53
4.6112604743247e-52
2.6451773827706e-52
2.9115138501594e-51
1.6813338595152e-51
1.7479056231426e-50
1.0166343012329e-50
9.9691356084824e-50
5.8425588293484e-50
5.4000412138804e-49
3.1901117525919e-49
2.7781733365967e-48
1.6549200924194e-48
1.3579352395676e-47
8.1589984001785e-48
6.3090272118788e-47
3.8245573087121e-47
2.7877681335635e-46
1.7054946500373e-46
1.1722729682942e-45
7.2394765979378e-46
4.6940820233943e-45
2.9269917255562e-45
1.7909761053064e-44
1.1278731282591e-44
6.5148260857323e-44
4.144583509305e-44
2.2606447100554e-43
1.453207333289e-43
7.4869478663461e-43
4.8643981128483e-43
2.3677200303123e-42
1.5552427492641e-42
7.1532392808865e-42
4.7515088427335e-42
2.0653829807491e-41
1.3877484840024e-41
5.7014935026062e-41
3.8761766477974e-41
1.5052879858003e-40
1.0357750052115e-40
3.8022101155972e-40
2.6487529159692e-40
9.1912091012171e-40
6.4843757995655e-40
2.1269479640486e-39
1.5201104015902e-39
4.7131316907711e-39
3.4133843597199e-39
1.0003268601074e-38
7.3436627997741e-39
2.033990778914e-38
1.5141140532765e-38
3.9627624172606e-38
2.992268709721e-38
7.3979546339727e-38
5.6686402683796e-38
1.3232586001592e-37
1.0293823692209e-37
2.2669936331458e-37
1.7913958289933e-37
3.7173727437643e-37
2.9860397219344e-37
5.827999923577e-37
4.7631764143697e-37
8.7207568179883e-37
7.2607954990089e-37
1.2420976814465e-36
1.0554083008243e-36
1.6755060100344e-36
1.4576057016144e-36
2.1163608245541e-36
1.8985563215016e-36
2.4457137050032e-36
2.2934037100276e-36
2.5588344431826e-36
2.5137779198775e-36
2.5653013932381e-36
2.5540123335394e-36
2.5308271166501e-36
2.5348991146177e-36
2.414124085297e-36
2.4575357803517e-36
2.177617351475e-36
2.2791429805891e-36
1.8263751496901e-36
1.9857341562878e-36
1.3986284812141e-36
1.5972393943062e-36
9.5949693106853e-37
1.1654815409798e-36
5.771370173973e-37
7.5684743766702e-37
2.9780483228531e-37
4.2859932254797e-37
1.2984473682442e-37
2.0794361359297e-37
4.8038391985788e-38
8.5880571935355e-38
1.5596206355102e-38
3.0657784995629e-38
4.6932615505825e-39
9.8352055270969e-39
1.3758477099051e-39
2.9752126522058e-39
4.0354181652312e-40
8.8101132308587e-40
1.1919083100743e-40
2.6023236399426e-40
3.537076575677e-41
7.7081289403452e-41
1.0513046063073e-41
2.2883569150537e-41
3.1252486081269e-42
6.7996722837228e-42
9.2931721870065e-43
2.0212193088811e-42
2.7662193316436e-43
6.0121710004839e-43
8.2478165774267e-44
1.7906161813889e-43
2.4639634195116e-44
5.3422581917255e-44
7.3737231184548e-45
1.5967591249884e-44
2.2092633750532e-45
4.779857875985e-45
6.6214349340293e-46
1.4321374939913e-45
1.9835467206347e-46
4.2910481528098e-46
5.928948368675e-47
1.2851484073614e-46
1.7769596824545e-47
3.8313654729048e-47
5.1177516824414e-48
1.1633045682722e-47
1.8995832209236e-48
2.9861906343626e-48
1.7182215916439e-48
0
0
0
0
0
0
0
0
0
0
0
0
6.7136363047742e-80
3.3527135614716e-80
1.6889645904547e-77
8.4334618070411e-78
1.8778603717285e-75
9.4000718948629e-76
1.2943083829564e-73
6.5039356263732e-74
6.362106445222e-72
3.2119346773547e-72
2.4086359147023e-70
1.2223519579042e-70
7.3755138282131e-69
3.7638698689754e-69
1.8890776897615e-67
9.696783232439e-68
4.1446135276199e-66
2.140427729081e-66
7.9255885953494e-65
4.1189464273652e-65
1.338514457463e-63
7.0018653306674e-64
2.01759362402e-62
1.062565627551e-62
2.7378723220199e-61
1.451969284426e-61
3.3692177808738e-60
1.7995808997903e-60
3.7853018622325e-59
2.0364589241221e-59
3.9102365236018e-58
2.1186921250412e-58
3.7442055389449e-57
2.0425185430614e-57
3.353743393206e-56
1.8409052179817e-56
2.8363021002985e-55
1.5655066227096e-55
2.2834757031575e-54
1.2665782550136e-54
1.7606827757287e-53
9.8101424209104e-54
1.30459169755e-52
7.300899882947e-53
9.2981161692533e-52
5.2272057492696e-52
6.369401781429e-51
3.5983049684762e-51
4.1861026195817e-50
2.377599004597e-50
2.6338885087022e-49
1.5048232166141e-49
1.5833065560612e-48
9.1043399929549e-49
9.0773648027444e-48
5.2561623890559e-48
4.956976179077e-47
2.8918049307693e-47
2.5760969550724e-46
1.5148148523447e-46
1.2734798044565e-45
7.5512736665386e-46
5.9874408462654e-45
3.5815428868333e-45
2.677625681528e-44
1.6163506941905e-44
1.1392865674419e-43
6.9425621454323e-44
4.6137630100859e-43
2.8390818308167e-43
1.7791467604465e-42
1.1058535583995e-42
6.5360260848252e-42
4.1047308619998e-42
2.2886515228336e-41
1.4526245536207e-41
7.6423925252612e-41
4.9036616448119e-41
2.4349014807212e-40
1.5798003338794e-40
7.4054631392263e-40
4.8597376940613e-40
2.151077056784e-39
1.4281200900258e-39
5.9704135950605e-39
4.0111445893324e-39
1.58418490437e-38
1.077286856659e-38
4.0203330828036e-38
2.7679397027008e-38
9.7625330741699e-38
6.8067111651954e-38
2.2692220035839e-37
1.6026927192072e-37
5.0506358947032e-37
3.6144928963836e-37
1.0766461787666e-36
7.809932727856e-37
2.1984569362061e-36
1.6170699799611e-36
4.3002617638925e-36
3.2086820277898e-36
8.0569271254782e-36
6.1013897392082e-36
1.4456184896661e-35
1.1116597427369e-35
2.4830833122451e-35
1.9401305048558e-35
4.0806245468169e-35
3.2418685740453e-35
6.4099364794586e-35
5.1824026180889e-35
9.6100479803851e-35
7.9160668329705e-35
1.3718357163022e-34
1.1531928668208e-34
1.8564573424202e-34
1.5971532499497e-34
2.357725865255e-34
2.0893287207182e-34
2.7500599384286e-34
2.542571505766e-34
2.9034111133799e-34
2.8152841683999e-34
2.9146838966589e-34
2.8759305179003e-34
2.885008642323e-34
2.8597157638847e-34
2.7680931610237e-34
2.7848189819485e-34
2.5189986856539e-34
2.6015831346607e-34
2.1380709720549e-34
2.2900210113202e-34
1.6629525387937e-34
1.8669782074794e-34
1.1639737772107e-34
1.3861555477814e-34
7.1845900555462e-35
9.203640757848e-35
3.8301480714402e-35
5.3604502651696e-35
1.736284710938e-35
2.6915287815866e-35
6.6978779535252e-36
1.155741042743e-35
2.2594417012347e-36
4.290902674829e-36
7.00322315336e-37
1.4243950264943e-36
2.0959216293414e-37
4.4236319851326e-37
6.2426875549065e-38
1.3357322863277e-37
1.8691516190402e-38
4.0079348472704e-38
5.6237973524099e-39
1.2043554254398e-38
1.6959567001246e-39
3.6273094189245e-39
5.1190573260932e-40
1.0940211706347e-39
1.5465157416797e-40
3.3028345942746e-40
4.6793655193315e-41
9.9835064561317e-41
1.4188638487377e-41
3.0230797410157e-41
4.3120085231337e-42
9.1737590156756e-42
1.3129276978729e-42
2.789700860856e-42
4.001970521432e-43
8.496958635837e-43
1.2198469573998e-43
2.5899718983074e-43
3.7143402418808e-44
7.8915354898643e-44
1.1276608644815e-44
2.4020838657856e-44
3.4304900596043e-45
7.2718379698328e-45
1.0010299195042e-45
2.2421608337272e-45
3.7840500639241e-46
5.801177757845e-46
3.4298720914396e-46
0
0
0
0
0
0
0
0
0
0
3.1359118305062e-80
1.5610244533945e-80
1.0462476299997e-77
5.1978694076809e-78
1.511826686793e-75
7.5106239488227e-76
1.3063848483125e-73
6.5009746826382e-74
7.8222087178663e-72
3.9039409436276e-72
3.5274787622526e-70
1.7672172813334e-70
1.2635404342778e-68
6.3584071073564e-69
3.7309744546825e-67
1.8867951893152e-67
9.3301135919819e-66
4.7434863613438e-66
2.0157647969611e-64
1.0306230252742e-64
3.819763057935e-63
1.9645938046263e-63
6.4248726789211e-62
3.3250275396969e-62
9.6848448656118e-61
5.0446370565274e-61
1.3186720716583e-59
6.9149100973298e-60
1.6326129060167e-58
8.6207063197495e-59
1.8487515919976e-57
9.8317265576732e-58
1.9252104111299e-56
1.0312632595223e-56
1.8538523093693e-55
1.0002002330117e-55
1.6613822460843e-54
9.0254575703256e-55
1.3968421397553e-53
7.6360726917365e-54
1.111963075255e-52
6.1120577774845e-53
8.4533384422117e-52
4.6685415990179e-52
6.1738014793127e-51
3.424451165328e-51
4.3420997229277e-50
2.4190773786176e-50
2.9390929138063e-49
1.6453639577645e-49
1.9106289158037e-48
1.0754576349172e-48
1.1900837443421e-47
6.739788417306e-48
7.0893882371675e-47
4.0419386875081e-47
4.0339408946414e-46
2.3165952875684e-46
2.190850596751e-45
1.2678607322994e-45
1.1351766252928e-44
6.622744782259e-45
5.6098870988761e-44
3.3007209662482e-44
2.6435515348494e-43
1.5692024855772e-43
1.1876334045215e-42
7.1147877877675e-43
5.0859016170578e-42
3.0759900879834e-42
2.0758134355171e-41
1.2679146014002e-41
8.0742852555634e-41
4.9823741324884e-41
2.9929169671859e-40
1.8663880900577e-40
1.0572061702217e-39
6.6647647984415e-40
3.5589377067794e-39
2.2688398384955e-39
1.1418833312449e-38
7.3637726650592e-39
3.4924968273838e-38
2.2789835089094e-38
1.018517232347e-37
6.7270254754541e-38
2.8331168779834e-37
1.894434752175e-37
7.5200414638233e-37
5.0920202157436e-37
1.905866373872e-36
1.3070416929973e-36
4.615391682633e-36
3.2061091652096e-36
1.0689835408532e-35
7.5219335051811e-36
2.3705555654245e-35
1.6896055076324e-35
5.0391569767554e-35
3.6378039757097e-35
1.0280066589901e-34
7.5161436849054e-35
2.0145505418684e-34
1.4917648159308e-34
3.7943784342735e-34
2.8461897503785e-34
6.8685314339059e-34
5.2212602257666e-34
1.1940826197282e-33
9.2056397837099e-34
1.9909283221256e-33
1.5582587860115e-33
3.1775468523903e-33
2.5282662954665e-33
4.8427436414896e-33
3.9235054831289e-33
7.026380148281e-33
5.8080524410714e-33
9.6626576601211e-33
8.1727159995287e-33
1.2483679961328e-32
1.0865965302936e-32
1.4861126703424e-32
1.3469962379898e-32
1.5981879068684e-32
1.5225180440127e-32
1.6101965064061e-32
1.5737126965313e-32
1.6013081277826e-32
1.5691211310442e-32
1.5476844402104e-32
1.536873428788e-32
1.4236733023912e-32
1.4489110453134e-32
1.2253612835507e-32
1.2911310285655e-32
9.6953064116e-33
1.0688251080384e-32
6.9300840622028e-33
8.0848781768823e-33
4.3898341471127e-33
5.4917643403694e-33
2.4158801846174e-33
3.2888917801611e-33
1.1370746517072e-33
1.7074164832367e-33
4.5679711194739e-34
7.6134911859787e-34
1.6008138780813e-34
2.9375925353035e-34
5.1155492259147e-35
1.0092818425029e-34
1.5649729047468e-35
3.220935607284e-35
4.7378014540307e-36
9.9272883185481e-36
1.4386489251163e-36
3.0279246646146e-36
4.3892235820449e-37
9.2336771416621e-37
1.3431045853093e-37
2.821838067444e-37
4.1169030111457e-38
8.6399624804447e-38
1.2639828003319e-38
2.6497352076935e-38
3.8892194680259e-39
8.1418235251223e-39
1.199895472174e-39
2.5077227269405e-39
3.7117703537717e-40
7.7444251434506e-40
1.1505705566755e-40
2.3974747248188e-40
3.5699757326437e-41
7.4344515697119e-41
1.1072222325769e-41
2.3066370485415e-41
3.4281587753614e-42
7.1504205373342e-42
1.057382369799e-42
2.2128170991426e-42
3.2655514722271e-43
6.8038695062371e-43
9.6549358260771e-44
2.130770301138e-43
3.7184406311368e-44
5.5547129791173e-44
3.3769611526875e-44
0
0
0
0
0
0
0
0
0
0
2.6526383526656e-78
1.3054270400609e-78
6.3938293939057e-76
3.1477155965043e-76
7.4450360382387e-74
3.6691772141453e-74
5.5689790113369e-72
2.7499374473986e-72
3.0191561118734e-70
1.4949310979568e-70
1.2696554487807e-68
6.3082057389017e-69
4.3273470191312e-67
2.1586068096851e-67
1.2331936602866e-65
6.1790165990237e-66
3.0069315344626e-64
1.5139879467173e-64
6.3829129794865e-63
3.2306045354246e-63
1.1955535080114e-61
6.0847438893389e-62
1.9974027063643e-60
1.0225401839426e-60
3.0025838857277e-59
1.5466036356254e-59
4.0902700830885e-58
2.1204371815045e-58
5.0806197584218e-57
2.6514910763575e-57
5.7853047779394e-56
3.0402048243124e-56
6.0671532218678e-55
3.2111335717715e-55
5.8845589218995e-54
3.1372499041567e-54
5.3021374043962e-53
2.8473527557763e-53
4.4628988316746e-52
2.4133869895641e-52
3.5352626234971e-51
1.9237582454115e-51
2.6597525652217e-50
1.4549927888239e-50
1.918674271724e-49
1.054129077522e-49
1.3370550702373e-48
7.3736953775482e-49
9.0345700809063e-48
5.002059101959e-48
5.9199161261007e-47
3.292925324489e-47
3.7537125212646e-46
2.0999165275636e-46
2.2968019420195e-45
1.2935729932905e-45
1.3524178941302e-44
7.6751535550908e-45
7.6442917812656e-44
4.3744366378645e-44
4.138214686386e-43
2.3891402189389e-43
2.1411267739494e-42
1.2476944876173e-42
1.0569154367126e-41
6.2188944590672e-42
4.9699303659124e-41
2.9538432795738e-41
2.2235695870399e-40
1.3353740863562e-40
9.4568166092016e-40
5.7406492991403e-40
3.8206942647399e-39
2.345157130865e-39
1.4656613464801e-38
9.0997693881018e-39
5.3366333175292e-38
3.3526697835371e-38
1.8438566319345e-37
1.1725870130453e-37
6.043844963374e-37
3.8922776136511e-37
1.8790075603001e-36
1.2259739926346e-36
5.5394830821748e-36
3.6634130177671e-36
1.5481918779849e-35
1.0382871750092e-35
4.1009712838457e-35
2.7904443623227e-35
1.0293710855836e-34
7.1099474434497e-35
2.448294855712e-34
1.7173496669622e-34
5.519180083267e-34
3.9329210676638e-34
1.1801385630289e-33
8.544351805525e-34
2.3971035890758e-33
1.763060355181e-33
4.6365863014999e-33
3.462323712389e-33
8.5700303168536e-33
6.4908602392693e-33
1.5202688410467e-32
1.1662526623258e-32
2.6001918557932e-32
2.017329794037e-32
4.3046341648254e-32
3.3733980194304e-32
6.9131251738972e-32
5.4692849962864e-32
1.0767605256024e-31
8.6043967297981e-32
1.6219477684489e-31
1.311341910265e-31
2.3509399288559e-31
1.9284662933796e-31
3.2562827060789e-31
2.7208663013602e-31
4.2657268695017e-31
3.6534349993422e-31
5.1866263088944e-31
4.606043537421e-31
5.70924579892e-31
5.3280754255783e-31
5.7996728717518e-31
5.6007524903192e-31
5.7901268785001e-31
5.6113553752794e-31
5.6316036190998e-31
5.5212974382275e-31
5.2475211833809e-31
5.2579664150252e-31
4.5829523233243e-31
4.7468625089955e-31
3.6918228173282e-31
3.9934967501867e-31
2.6960911079503e-31
3.0796629887405e-31
1.7525073780689e-31
2.1406335922324e-31
9.9491622574015e-32
1.3177874658678e-31
4.8560109428391e-32
7.067385216004e-32
2.0292482491559e-32
3.2689611959249e-32
7.3854351731621e-33
1.309829359385e-32
2.4350801588216e-33
4.6582082987712e-33
7.624155728382e-34
1.5288539219741e-33
2.3483481568594e-34
4.8145033260507e-34
7.2358637922993e-35
1.4938534722023e-34
2.239203694918e-35
4.625247547142e-35
6.9540516320248e-36
1.4346441378038e-35
2.1651669839106e-36
4.460363458728e-36
6.7581214721948e-37
1.390032254086e-36
2.1156841163906e-37
4.3436002029299e-37
6.645415361321e-38
1.3615491759202e-37
2.0938780818913e-38
4.2818392380447e-38
6.6123007149068e-39
1.3503506447453e-38
2.089785029425e-39
4.2660338072418e-39
6.5985156621472e-40
1.3480948591589e-39
2.0782884030458e-40
4.2538369138992e-40
6.5144670731642e-41
1.3389092630086e-40
2.0428266783605e-41
4.1824284401482e-41
6.1199169595706e-42
1.330629772324e-41
2.4025531790187e-42
3.4937004839749e-42
2.1858721901454e-42
0
0
0
0
0
0
0
0
7.5955948641819e-89
3.7622985152658e-89
1.0904459711219e-76
5.3012192998096e-77
2.3030168488269e-74
1.1216267404775e-74
2.4046684631992e-72
1.1735605182354e-72
1.6493091516241e-70
8.069266533679e-71
8.3510914094607e-69
4.0978186785377e-69
3.3289381725543e-67
1.6390288058876e-67
1.0882743654835e-65
5.3786362215087e-66
3.0028841161558e-64
1.4903562404765e-64
7.1432825477773e-63
3.5613980555957e-63
1.4884177082748e-61
7.4569863331788e-62
2.7508675557314e-60
1.3853623352472e-60
4.5548809085946e-59
2.3065452596876e-59
6.8115216747817e-58
3.4693942162145e-58
9.2609086360065e-57
4.7458960099643e-57
1.1512587489172e-55
5.9376695225151e-56
1.3150174736489e-54
6.8276019986865e-55
1.3860405229819e-53
7.246289506025e-54
1.3531335890295e-52
7.1250607579578e-53
1.2276748067934e-51
6.5121677984551e-52
1.0386547869375e-50
5.5503643075965e-51
8.2320172401734e-50
4.4300626796427e-50
6.1579408659812e-49
3.3341207276578e-49
4.3969147333198e-48
2.3916033271422e-48
3.0384201560253e-47
1.6577095608163e-47
2.0584390030293e-46
1.125465430599e-46
1.3784148742206e-45
7.5546307478157e-46
9.139896061547e-45
5.0273322641533e-45
5.9774344309705e-44
3.3049732766898e-44
3.8267738450928e-43
2.1300880179853e-43
2.377218363843e-42
1.3337648075867e-42
1.4210471204435e-41
8.0441174992443e-42
8.1181971071494e-41
4.6399444997382e-41
4.4092250517929e-40
2.5460142558799e-40
2.2683911207919e-39
1.3239923473814e-39
1.1026950151828e-38
6.5086817881132e-39
5.05702495037e-38
3.0198975979609e-38
2.1859179334675e-37
1.3212217717434e-37
8.9012810954112e-37
5.4478644941997e-37
3.4138395510344e-36
2.1166211799339e-36
1.2329771159547e-35
7.7479552709265e-36
4.1933324726746e-35
2.6720452491905e-35