/*--------------------------------*- C++ -*----------------------------------*\
  =========                 |
  \\      /  F ield         | OpenFOAM: The Open Source CFD Toolbox
   \\    /   O peration     | Website:  https://openfoam.org
    \\  /    A nd           | Version:  7
     \\/     M anipulation  |
\*---------------------------------------------------------------------------*/
FoamFile
{
    version     2.0;
    format      ascii;
    class       volScalarField;
    location    "3.7";
    object      alpha.water;
}
// * * * * * * * * * * * * * * * * * * * * * * * * * * * * * * * * * * * * * //

dimensions      [0 0 0 0 0 0 0];

internalField   nonuniform List<scalar> 
6000
(
0
0
0
0
0
0
0
0
0
0
0
0
0
0
0
0
0
0
0
0
0
0
0
0
0
0
0
0
0
0
0
0
0
0
0
0
0
0
0
0
0
0
0
0
0
0
0
0
0
0
0
0
0
0
0
0
0
0
0
0
0
0
0
0
0
0
0
0
0
0
0
0
0
0
0
0
0
0
0
0
0
0
0
0
0
0
0
0
0
0
0
0
0
0
0
0
0
0
0
0
0
0
0
0
0
0
0
0
0
0
0
0
0
0
0
0
0
0
0
1.9085246825504e-215
2.0077144635983e-214
1.1014908206542e-213
4.1821654383614e-213
2.8326899506978e-220
3.6817616332472e-194
8.9510124025059e-194
5.9103446383333e-204
6.2685404274192e-204
3.126132386648e-204
4.7112357908964e-193
3.6708393686029e-192
1.918483348126e-202
7.9565665646282e-193
3.0251453015011e-192
1.2785247038283e-191
4.6269409749782e-191
3.4005452787564e-202
6.5950125717834e-203
4.9406334366659e-192
1.4665453029611e-191
2.1554059081749e-204
8.2298340956694e-192
4.5163852122161e-207
1.4598207483758e-192
2.6942573852186e-206
3.4197705162634e-193
1.0743779638085e-192
3.3094201986067e-208
4.640268542858e-193
5.8401532916588e-209
1.4072764526637e-193
3.0887200531361e-193
2.4333972048578e-209
9.5573935427868e-194
2.9200766458294e-209
3.3459211566795e-209
5.023679060062e-195
1.6881693108701e-209
1.4024263027846e-195
1.6430832270649e-199
3.4585864449236e-196
6.4757832569969e-208
4.9510600744686e-197
2.9771688025962e-208
7.2576890663268e-198
5.728187244645e-198
6.0622616735666e-207
8.0090803217809e-199
1.0826612890568e-198
7.0489327249185e-199
9.3499973595836e-199
1.200919953484e-204
2.0003833065357e-199
3.8617869883437e-206
2.3589696651574e-200
8.7260231458166e-206
5.5366706261198e-201
4.0918636536009e-201
1.6016177431794e-203
7.8037246385417e-202
3.1632656896353e-204
1.8563915046523e-202
1.2538855035101e-202
1.5813710337759e-202
1.6330564720582e-202
2.5933887905431e-203
5.8280387764872e-203
3.6563223895381e-203
4.482677152765e-203
2.694457612728e-203
1.8934550751486e-203
2.2089055806603e-203
1.3181787571429e-203
1.4335160243055e-203
8.1834203314133e-204
8.2688555687031e-204
7.117545703355e-204
3.7869824479789e-204
3.444462091801e-204
4.0017576257437e-204
0
0
0
0
0
0
0
0
0
0
0
0
0
0
0
0
0
0
0
2.6184063963896e-160
1.4402666776789e-156
8.460983803165e-164
4.7729483988228e-146
3.0126357183841e-130
3.4984988552429e-129
0
4.0093155135186e-127
5.6371967119797e-128
-2.8033779583523e-134
1.7917114712641e-128
3.5791368459263e-128
1.4088681736375e-127
7.0699643936106e-130
2.622834631019e-130
5.416596905063e-129
3.808636770017e-128
2.6631843659247e-126
0
3.6326359390745e-128
1.299449514138e-124
0
2.071712721997e-123
5.0020614019741e-123
3.458576915537e-125
-4.7899905384627e-126
4.7896844750838e-126
1.0510488754289e-123
4.4800453461478e-123
2.1760547511281e-122
2.1992756925678e-122
-2.5467589307266e-139
8.1605874880081e-122
1.471841462037e-122
6.1440318904505e-123
6.7005698704209e-123
5.0106249569475e-124
1.8458128811474e-123
6.9264392360775e-124
1.7598914669007e-125
1.0084213055455e-125
9.4643976681777e-128
1.2463448231984e-125
0
5.9496984201605e-128
0
0
1.5528811017307e-128
0
2.6782649737724e-133
0
5.9354790516411e-133
0
7.7523298395526e-131
5.6791462439904e-135
1.1794773587834e-200
3.2015733089476e-149
4.0025354404877e-133
3.2239969632543e-137
1.0004916590461e-150
3.1378535268392e-136
0
2.785601901957e-136
-3.908170543149e-153
4.6176056118541e-141
6.6675475224838e-138
5.8789352923464e-138
3.7969263587498e-138
0
5.9575114268852e-143
7.4293508428626e-140
0
7.2858372772439e-141
0
1.3606710516828e-142
1.5959510176583e-142
1.0943889743389e-142
5.0547218579821e-143
5.5568968737127e-161
2.4694999821777e-145
2.6987798526072e-144
0
0
0
0
0
0
0
0
0
0
0
0
0
0
0
0
0
-2.7161692831497e-98
-8.0560447642268e-97
-1.3415545939614e-95
-1.5844994144232e-94
-1.4292541745938e-93
-1.0342168520526e-92
3.1037762938853e-83
1.9755692537223e-82
7.2400824364388e-81
1.8753894528118e-80
1.7988302223208e-82
-4.0818371012286e-90
-3.862739709805e-94
-1.0462530525168e-97
-7.3151193042067e-100
0
1.1429873912823e-101
1.4287342391029e-102
9.1258915480391e-76
6.640751370225e-74
4.0139524819968e-73
2.873426263318e-72
2.4815861493405e-71
5.5719195543494e-71
3.7666294619469e-71
-1.1533858512645e-77
-1.7672261996439e-80
0
0
0
4.5391580271692e-73
7.7592535686132e-71
-1.6086324569468e-87
2.0578919806528e-88
7.1346388708898e-70
1.005455367329e-71
-3.1955608140437e-78
0
0
5.4159246053437e-67
1.9612077438567e-68
5.3749326122138e-67
5.5520555657206e-69
3.4234323700353e-84
3.9044175286316e-66
7.0726006728585e-66
2.0227705183883e-65
4.386596730744e-65
8.8791836097337e-65
2.3107886133948e-64
4.5146717281826e-64
1.0908901850564e-63
2.1699661864378e-63
3.9727737084554e-63
8.8094544414112e-63
1.4963315299041e-62
2.8576267018473e-62
4.5850904699807e-62
6.0330124704339e-62
8.3419545992431e-62
8.5133211625546e-62
8.4019349462627e-62
8.219860615003e-62
7.848268142664e-62
7.2782612058072e-62
6.7569473395315e-62
5.6939790687398e-62
3.8399757311961e-62
2.1292925882731e-62
7.154591465339e-63
9.5472657154558e-64
1.470673176176e-64
3.4973164499654e-65
2.3596939933415e-66
3.4321019061301e-67
1.948198170557e-67
6.6932936725397e-68
1.9154023086505e-68
5.0374299001682e-69
1.2802706037278e-69
3.2884387200744e-70
6.9844301045649e-71
3.507500615159e-71
0
0
0
0
0
0
0
0
0
4.4346609699036e-87
4.0940694502831e-85
2.0556225616886e-83
7.9913883986098e-82
1.9984040701905e-80
3.9647546468604e-79
7.4695303477978e-78
1.0843449296897e-76
1.966285331791e-75
3.0459150343967e-74
3.6061773109699e-73
4.1421515471604e-72
4.1999717504757e-71
4.7309576153698e-70
4.1762088190071e-69
3.1520517391861e-68
2.2053215757531e-67
1.860006216461e-66
1.4436753083241e-65
1.7108837876468e-64
6.4734617856972e-64
2.6178874860679e-63
2.117552641594e-62
3.0075288379372e-62
2.4496366494125e-61
2.9950311125016e-61
9.7721742079054e-61
1.2390692422008e-59
2.404358939725e-59
1.3671527769251e-58
6.1029151431287e-58
2.6792173373625e-57
1.6946170650148e-56
1.3551478557431e-55
2.3393366291181e-55
4.713583647129e-55
3.8278895206606e-55
2.5546700131879e-55
-7.2445432630615e-72
2.0661674352142e-55
1.7859876772104e-53
3.7441537099827e-53
9.7141773078616e-53
0
9.8337666974254e-52
3.5985287115444e-51
0
8.0823816396565e-51
1.18694596822e-67
4.9202349970904e-51
5.8927114901742e-68
2.96736492055e-68
6.4920044660811e-51
7.8514089660927e-66
3.5890868215447e-51
4.757893420507e-65
7.882804911441e-65
2.3814329035572e-52
4.8964351179669e-64
6.50449049333e-53
2.3435173405455e-63
3.610980808008e-63
3.7631837875399e-52
1.6131634755301e-62
7.1354229769728e-53
4.8977047212434e-62
6.0568540974328e-62
2.1443156863803e-53
1.6610171519246e-57
7.5832376179191e-62
5.5237667367201e-59
8.403309079429e-62
1.2426398619221e-58
5.8703750877495e-57
6.4078100050179e-57
4.1072421648154e-62
6.1563793772933e-56
1.1032066316759e-58
1.6428805994911e-63
1.0629622154182e-58
1.8169969692784e-58
1.3077425903171e-65
2.4514809819179e-66
3.8623189514061e-59
1.8576906539135e-59
6.861656503529e-60
6.5479277591795e-60
1.4316292572383e-60
1.515158854141e-60
4.3682635875505e-61
4.7997305444751e-61
0
0
0
0
0
0
0
7.1519744406274e-78
1.1990821799832e-75
9.8983886128795e-74
5.3745339423501e-72
2.1627256321005e-70
6.8903361695705e-69
1.8124645542445e-67
4.0498948672534e-66
7.841750488104e-65
1.334777024558e-63
2.0192185506469e-62
2.7399631852598e-61
3.3643574960231e-60
3.7724526516356e-59
3.9012173259306e-58
3.7599677863036e-57
3.4125829116943e-56
2.943448505437e-55
2.4288459211708e-54
1.9242585923792e-53
1.4646383560783e-52
1.069524535328e-51
7.4748965908567e-51
4.9875360986268e-50
3.1704679173351e-49
1.9172211605715e-48
1.1019239966788e-47
6.0173000465445e-47
3.1219710496727e-46
1.5394153266567e-45
7.2173862024342e-45
3.2191618606758e-44
1.3668093138648e-43
5.5277148499518e-43
2.1307034799507e-42
7.8324480895584e-42
2.7473445495769e-41
9.2002217242825e-41
2.94283044834e-40
8.9951845972648e-40
2.6285340482618e-39
7.3458589404544e-39
1.9640447347631e-38
5.025552060704e-38
1.2310477480155e-37
2.887704217303e-37
6.4884129762997e-37
1.3968346871889e-36
2.8818520072506e-36
5.698951730898e-36
1.080323907252e-35
1.9630485608507e-35
3.4184014489995e-35
5.7016669985866e-35
9.1007013143974e-35
1.3881332613883e-34
2.0189890760705e-34
2.7901603790025e-34
3.6371943806512e-34
4.3997686052813e-34
4.8266205284885e-34
4.8860041361081e-34
4.8442268140256e-34
4.6927640313417e-34
4.3550209474664e-34
3.7915721354021e-34
3.0444964801449e-34
2.2136109623884e-34
1.4280309438387e-34
7.9909121465251e-35
3.7959868078554e-35
1.5137284778717e-35
5.1346455774915e-36
1.5510347983892e-36
4.4481018522948e-37
1.2730977541066e-37
3.7049422538262e-38
1.0933231012241e-38
3.2464271296707e-39
9.6528753650514e-40
2.8704510281504e-40
8.5416316853846e-41
2.5458578445602e-41
7.6042535744874e-42
2.2760094970988e-42
6.8223073757395e-43
2.0461606521526e-43
6.1333722042351e-44
1.8369367135271e-44
5.4612437356572e-45
1.6769934399125e-45
3.8533806105293e-46
2.697977881739e-46
0
0
0
0
0
0
6.3383310221358e-78
1.6007435932671e-75
1.788094791863e-73
1.2387128484637e-71
6.1215123795148e-70
2.3304486721852e-68
7.1768869236122e-67
1.8489593156377e-65
4.080927303455e-64
7.8519203995816e-63
1.334487854626e-61
2.0246611629163e-60
2.7659176813085e-59
3.4271602378823e-58
3.8772655538991e-57
4.0329633865487e-56
3.8874550408762e-55
3.503675856253e-54
2.9798517873436e-53
2.4113725478484e-52
1.8682168275392e-51
1.3907723023701e-50
9.9602870776731e-50
6.8582423377073e-49
4.5326957707346e-48
2.8694553497311e-47
1.7364148201125e-46
1.0026768048428e-45
5.5175352791339e-45
2.8907932483713e-44
1.4413108130036e-43
6.8373531887462e-43
3.0862904567574e-42
1.3258978710199e-41
5.4233297592919e-41
2.1129785761607e-40
7.8452302535131e-40
2.7772456802117e-39
9.3786315299182e-39
3.0227251711173e-38
9.3026558150143e-38
2.7351231704137e-37
7.6863202152581e-37
2.0655627676137e-36
5.3105268134053e-36
1.306792620134e-35
3.0790650752966e-35
6.9489893217304e-35
1.5025479306132e-34
3.1132351579826e-34
6.1816083440581e-34
1.1761974866713e-33
2.1442841212839e-33
3.7444019774615e-33
6.2599692164701e-33
1.001200746974e-32
1.5300478379329e-32
2.2299717623523e-32
3.0899629816666e-32
4.0447213928357e-32
4.927809952851e-32
5.4611862827938e-32
5.5603217037557e-32
5.5216367659262e-32
5.3706050128232e-32
5.0216133871558e-32
4.4167802968872e-32
3.5950152768456e-32
2.6602094117182e-32
1.7555600046271e-32
1.011461155088e-32
4.983570218625e-33
2.0741480132999e-33
7.354583557313e-34
2.308661809681e-34
6.8039109770226e-35
1.9815119111833e-35
5.8405830519939e-36
1.7449145959812e-36
5.2516458469139e-37
1.5847489497907e-37
4.7870830258035e-38
1.4479666617989e-38
4.3889067501354e-39
1.3336284413589e-39
4.0615098871059e-40
1.2386845684679e-40
3.7787995496957e-41
1.1514871310959e-41
3.5034272786221e-42
1.0570515787992e-42
3.2944375744753e-43
7.6158181994445e-44
5.4763829315718e-44
0
0
0
0
0
2.9591136798515e-78
9.9010047183418e-76
1.4360030510299e-73
1.246237164696e-71
7.4975205517244e-70
3.3981746060215e-68
1.2236727422759e-66
3.6330642046386e-65
9.136573497961e-64
1.9854261486718e-62
3.7847888766608e-61
6.405262520138e-60
9.7165294000452e-59
1.331625931166e-57
1.6597177019566e-56
1.8923664276785e-55
1.9844026074717e-54
1.9242085583389e-53
1.7361358557496e-52
1.4689255341068e-51
1.1759973434514e-50
8.9856347573744e-50
6.5937361640707e-49
4.6595705835087e-48
3.1700351641194e-47
2.0722295603527e-46
1.2985873425646e-45
7.7865003841251e-45
4.4615939857197e-44
2.4410194795578e-43
1.2746262184662e-42
6.3503273136722e-42
3.0179825161453e-41
1.3679396409963e-40
5.9126342123706e-40
2.43672435446e-39
9.5742842186862e-39
3.5864252094365e-38
1.2807755449422e-37
4.3607450430072e-37
1.4156881201217e-36
4.3829010808501e-36
1.2943174932641e-35
3.6470323584036e-35
9.8093009372019e-35
2.5198323485201e-34
6.1864449418034e-34
1.452843163633e-33
3.2669693796216e-33
7.0422345623007e-33
1.4568446422594e-32
2.8952910608811e-32
5.5314953235824e-32
1.0160958157507e-31
1.7937574100048e-31
3.0397995645183e-31
4.9368588251842e-31
7.6673501618362e-31
1.1357207506898e-30
1.5989117089118e-30
2.1269068041749e-30
2.6388918870919e-30
2.9854616625057e-30
3.0774992974506e-30
3.0627551142868e-30
2.9941234077601e-30
2.8262999747776e-30
2.5162473953873e-30
2.0798933425424e-30
1.5683024532319e-30
1.0592819855653e-30
6.2812954527686e-31
3.205892708913e-31
1.390122236785e-31
5.1456607044388e-32
1.6786385888584e-32
5.0910829180088e-33
1.5111556678938e-33
4.5159297295491e-34
1.3663982742691e-34
4.1686573445578e-35
1.2767443368325e-35
3.9184505882169e-36
1.2051752909748e-36
3.7167486774607e-37
1.1496039736534e-37
3.5645329353304e-38
1.1067512545475e-38
3.436025111936e-39
1.0648565699915e-39
3.2922907483478e-40
1.0082993363731e-40
3.1899784702934e-41
7.4146314640093e-42
5.4817256525658e-42
0
0
0
0
0
2.5031397312544e-76
6.0559666071887e-74
7.0802570095688e-72
5.3194007506222e-70
2.8973609570749e-68
1.2244482360856e-66
4.1947344788831e-65
1.201763572293e-63
2.9463752426209e-62
6.2897307180759e-61
1.184958003672e-59
1.9915653982703e-58
3.0122971392006e-57
4.1296030585057e-56
5.1630266867458e-55
5.9186579840527e-54
6.2498340650615e-53
6.1044227863922e-52
5.5391056013123e-51
4.6943983710106e-50
3.7423636844285e-49
2.8313968268988e-48
2.052322910529e-47
1.436241982025e-46
9.7441459600863e-46
6.4120591128151e-45
4.084845387664e-44
2.5124522999715e-43
1.4879343222172e-42
8.4635815145871e-42
4.6134633681812e-41
2.4049878482246e-40
1.1968196389162e-39
5.6769630528591e-39
2.5635870376296e-38
1.1010886920333e-37
4.4951390411045e-37
1.7434068173804e-36
6.4215153337494e-36
2.2456717721848e-35
7.4547229788974e-35
2.3485763981203e-34
7.0205751676008e-34
1.9908334026361e-33
5.3541363830666e-33
1.3653719903062e-32
3.301297998021e-32
7.5693636602959e-32
1.6467308628473e-31
3.4032653988924e-31
6.6953186412995e-31
1.2576900183785e-30
2.2647796002101e-30
3.9270263095453e-30
6.5839758167937e-30
1.0703762379e-29
1.6885389515669e-29
2.5799876360474e-29
3.802540658431e-29
5.3743794814609e-29
7.2259230979457e-29
9.1206569389636e-29
1.0562644521831e-28
1.1086347860934e-28
1.1067862253998e-28
1.0879846819903e-28
1.0364595185095e-28
9.3516167929322e-29
7.8562236123332e-29
6.0402754436815e-29
4.1764523261282e-29
2.5477826369576e-29
1.3455023635639e-29
6.0689855613843e-30
2.3421728868637e-30
7.9395102780677e-31
2.4808553469657e-31
7.5169063185994e-32
2.2800430936219e-32
6.9907090338028e-33
2.1624018169942e-33
6.7230151988326e-34
2.096980729426e-34
6.5608829591987e-35
2.059840080541e-35
6.4894702507952e-36
2.0500553099182e-36
6.4845070721531e-37
2.0499937873921e-37
6.4643280016468e-38
2.0316801854546e-38
6.3172944934484e-39
2.0292069326979e-39
4.7391188468181e-40
3.6069185797843e-40
0
0
0
0
7.1562625777251e-87
1.0287452291379e-74
2.1819478666139e-72
2.2882907318993e-70
1.5766816444737e-68
8.0213661602571e-67
3.2132843925245e-65
1.0558193741398e-63
2.9286062429576e-62
7.0041372332653e-61
1.467507643008e-59
2.7276557324224e-58
4.5428772124697e-57
6.8345028541854e-56
9.3498001879647e-55
1.1697292179772e-53
1.344889460487e-52
1.4270974073909e-51
1.4028823969896e-50
1.2818597449298e-49
1.0922889726439e-48
8.7176321657043e-48
6.5624458392287e-47
4.7097008301493e-46
3.2662609610442e-45
2.2177622794102e-44
1.4873411478801e-43
9.8772969624694e-43
6.4740325594285e-42
4.1584707915882e-41
2.5951605286437e-40
1.5604533675931e-39
8.9775971575767e-39
4.9156050352456e-38
2.5518233654474e-37
1.2527570637341e-36
5.8064900924147e-36
2.5384311308456e-35
1.0461387674499e-34
4.0632371154788e-34
1.4871849427386e-33
5.1291523954743e-33
1.6668458196518e-32
5.1036902758231e-32
1.4721718840759e-31
3.999694008407e-31
1.0231508500663e-30
2.4629873467701e-30
5.5750409599405e-30
1.1853268795097e-29
2.3643616770867e-29
4.4202803712579e-29
7.7448493272656e-29
1.2741694481675e-28
1.978320680835e-28
2.9247163986498e-28
4.1663289369514e-28
5.790024883242e-28
7.9249087606971e-28
1.0724462259634e-27
1.430653592837e-27
1.8636143634542e-27
2.3324208339019e-27
2.7325663322162e-27
2.9215472938282e-27
2.9314013911757e-27
2.8959676256682e-27
2.7823702574749e-27
2.5446772009775e-27
2.1736264060879e-27
1.7049316924551e-27
1.2070931667785e-27
7.5742953344711e-28
4.1360867345218e-28
1.9386720379237e-28
7.7940933243554e-29
2.7455433256378e-29
8.84855148806e-30
2.7409007764246e-30
8.4479518694786e-31
2.626259773153e-31
8.2390344355298e-32
2.6009103452293e-32
8.2473514566897e-33
2.6261195269338e-33
8.3985447267272e-34
2.6969574568991e-34
8.6866938283623e-35
2.8011901681072e-35
9.0233069997583e-36
2.8966727811126e-36
9.2581928388181e-37
2.9234651036434e-37
9.5365861170746e-38
2.236069775827e-38
1.7547310167553e-38
0
0
0
0
4.172926718397e-85
2.7476428361532e-73
5.4391640561942e-71
5.3595336291993e-69
3.4970984259742e-67
1.6978369798905e-65
6.5368307351429e-64
2.0776029424777e-62
5.6059166982339e-61
1.3107264794566e-59
2.6966381323399e-58
4.9416170480456e-57
8.1438458927538e-56
1.2162929887642e-54
1.6568890423286e-53
2.0697051688852e-52
2.3813064725734e-51
2.5336509913717e-50
2.5021067639716e-49
2.3005171838881e-48
1.9735105130501e-47
1.5825359186339e-46
1.1908173415297e-45
8.4883871026738e-45
5.834421143127e-44
3.9606550672848e-43
2.7133555397101e-42
1.8926695105956e-41
1.334444935372e-40
9.3431620329471e-40
6.371511386619e-39
4.166569657278e-38
2.585493050383e-37
1.5129118865103e-36
8.3199917722592e-36
4.2931949807283e-35
2.0775288097508e-34
9.4282698203706e-34
4.0139557394348e-33
1.6038376613493e-32
6.0172240442204e-32
2.1206066155657e-31
7.0225897715103e-31
2.1858122340026e-30
6.3953192051033e-30
1.7588474068194e-29
4.54560638511e-29
1.1033488938379e-28
2.5131803199084e-28
5.36546820422e-28
1.0719300620306e-27
1.9997461686336e-27
3.4741587683271e-27
5.6042409103225e-27
8.3806957268493e-27
1.1648893857616e-26
1.5197698171758e-26
1.8928768658553e-26
2.2963188164495e-26
2.7614570312841e-26
3.3270729583722e-26
4.019078846788e-26
4.8137304796277e-26
5.5720599861327e-26
6.0161167958565e-26
6.0747620298292e-26
6.0216339219797e-26
5.8287425899005e-26
5.3988102041034e-26
4.6884074663609e-26
3.7535114723633e-26
2.7230504660843e-26
1.7583356654305e-26
9.926505779978e-27
4.8306420009585e-27
2.0207710690654e-27
7.392809537442e-28
2.4587831106739e-28
7.796471054826e-29
2.4450577740389e-29
7.7141437405134e-30
2.4558423531982e-30
7.8751403106674e-31
2.5398263058359e-31
8.2353431954071e-32
2.6846635527446e-32
8.7941928874648e-33
2.8904076645865e-33
9.5097909025591e-34
3.1235748575142e-34
1.0214205576308e-34
3.3214129641252e-35
1.0654302516662e-35
3.5306136960947e-36
8.3032829216277e-37
6.7311224219418e-37
0
0
0
0
7.3469748002008e-84
5.3738442897259e-72
1.0214346226704e-69
9.6848579855443e-68
6.0989393585661e-66
2.8670887352976e-64
1.0724066828726e-62
3.3222740949771e-61
8.7652861660937e-60
2.0098930146136e-58
4.0669205345264e-57
7.350420209414e-56
1.1979944440696e-54
1.7740689813007e-53
2.4024869754975e-52
2.9907707762024e-51
3.4366683642721e-50
3.6589087904161e-49
3.6222938802413e-48
3.345111370097e-47
2.887340374926e-46
2.3302851022361e-45
1.7593767120852e-44
1.2500912974916e-43
8.5183174899881e-43
5.7578748431424e-42
4.0016291856163e-41
2.904588292252e-40
2.172744533754e-39
1.6263455512711e-38
1.1838397431256e-37
8.2130466701695e-37
5.3665778192722e-36
3.2828029854046e-35
1.8752626351239e-34
9.9985643473682e-34
4.9786758693118e-33
2.3175873485194e-32
1.0097318093012e-31
4.1219358299644e-31
1.5780960644334e-30
5.6705997896232e-30
1.9134819998472e-29
6.0655480453928e-29
1.8064728938445e-28
5.0544972711427e-28
1.3282102725926e-27
3.275965267577e-27
7.5768356633723e-27
1.6413717120172e-26
3.3249491469603e-26
6.2822034041176e-26
1.1034326537185e-25
1.7948827345459e-25
2.6909764135251e-25
3.698213878026e-25
4.6530336920022e-25
5.4230013310784e-25
6.0083544144537e-25
6.5101405012122e-25
7.0461302056912e-25
7.7116148751095e-25
8.5523015238529e-25
9.4827994374838e-25
1.0164376950999e-24
1.0312675408224e-24
1.0249489730812e-24
9.9863631873333e-25
9.3567002384829e-25
8.2509891883572e-25
6.7308798504265e-25
4.9925046659686e-25
3.3094984420764e-25
1.9273534402379e-25
9.7235923266732e-26
4.2309624671169e-26
1.6090945852102e-26
5.5335922561571e-27
1.7999178657525e-27
5.7523339819264e-28
1.843486737837e-28
5.9587517905978e-29
1.9418515558471e-29
6.3729848059446e-30
2.1055959956382e-30
7.0021297917849e-31
2.3417397716184e-31
7.86079690831e-32
2.6410347764159e-32
8.8521784327852e-33
2.9505762439474e-33
9.7665929069922e-34
3.1837419859247e-34
1.0721552469272e-34
2.5261651873362e-35
2.1204738194256e-35
0
0
0
0
1.6183330369503e-83
8.2173486014913e-71
1.5227230379478e-68
1.4084365687703e-66
8.6618005298334e-65
3.9819209617461e-63
1.4586818797335e-61
4.4328503955777e-60
1.1491113801788e-58
2.5931274605382e-57
5.1724699993124e-56
9.2316965564728e-55
1.488511977164e-53
2.1847690479433e-52
2.9382704134805e-51
3.6399771952939e-50
4.1705631541927e-49
4.4354543668308e-48
4.3934865154376e-47
4.0664637476598e-46
3.5254340210239e-45
2.8634829652567e-44
2.1747252726496e-43
1.5461187004378e-42
1.0456887097886e-41
7.0002461532486e-41
4.8739483345296e-40
3.6176084512977e-39
2.8136867922117e-38
2.2048080884925e-37
1.6795198332404e-36
1.2153472104927e-35
8.2515880158641e-35
5.2262707904071e-34
3.0814023629541e-33
1.6909967618096e-32
8.6448972845169e-32
4.1228929539826e-31
1.8371375525872e-30
7.6599295818659e-30
2.9923590331286e-29
1.0963742719655e-28
3.7704384402367e-28
1.2176727281761e-27
3.6938949262436e-27
1.0525813531653e-26
2.8166515525702e-26
7.0744220788894e-26
1.6663671511451e-25
3.6769707768903e-25
7.5888338249288e-25
1.4616445797868e-24
2.6192317190671e-24
4.3499385243591e-24
6.6575688901677e-24
9.3079058737121e-24
1.176120184661e-23
1.3399498612479e-23
1.4081941195157e-23
1.4242963514925e-23
1.4217611814821e-23
1.422095433768e-23
1.4321148553798e-23
1.4578927390252e-23
1.4896112710203e-23
1.4971657106915e-23
1.4878872259331e-23
1.4500110462378e-23
1.3613096332418e-23
1.2103972288727e-23
1.002291918963e-23
7.5945546404891e-24
5.1711080192232e-24
3.1088352521847e-24
1.6265223799226e-24
7.3622140004715e-25
2.9119288206792e-25
1.0366378405047e-25
3.4647310144257e-26
1.1301532198025e-26
3.682958509344e-27
1.2094965888584e-27
4.0076058063288e-28
1.3391112675224e-28
4.5110002994798e-29
1.5314344178476e-29
5.233304984519e-30
1.7958002706336e-30
6.1666288270885e-31
2.1109549027875e-31
7.1771904166102e-32
2.419745027133e-32
8.0196056306794e-33
2.7458364426648e-33
6.472291480711e-34
5.6420945820602e-34
0
0
0
0
5.6285591428739e-84
1.0240503450889e-69
1.8668681912109e-67
1.6988162844286e-65
1.0281775343739e-63
4.653880598943e-62
1.6796160934216e-60
5.0323205193496e-59
1.2870877231081e-57
2.867968663993e-56
5.6536987082399e-55
9.9818922795049e-54
1.5938494421261e-52
2.3194486103018e-51
3.0969464578287e-50
3.8146994283136e-49
4.3529632203872e-48
4.6180364469413e-47
4.569776790396e-46
4.2312098722804e-45
3.6763034889561e-44
3.0005621362115e-43
2.2944195948719e-42
1.6381935422244e-41
1.1027852146489e-40
7.2792757402349e-40
5.0054107180796e-39
3.7239638092814e-38
2.9520559603606e-37
2.3803056067212e-36
1.8713521174473e-35
1.3975042755842e-34
9.7835340570922e-34
6.3839676988786e-33
3.8752737880373e-32
2.1882260301598e-31
1.1502275039714e-30
5.6346535242778e-30
2.5758312585803e-29
1.1003861420989e-28
4.3989440088471e-28
1.6476580594552e-27
5.7882870161516e-27
1.9086886799765e-26
5.9106888136553e-26
1.7192860201428e-25
4.6970236945085e-25
1.2047022406893e-24
2.8986488045151e-24
6.535696269617e-24
1.37877648209e-23
2.715704304866e-23
4.9798854831704e-23
8.4692877142024e-23
1.3284408271066e-22
1.9032877034712e-22
2.449458898323e-22
2.7789756459348e-22
2.8450939086689e-22
2.8241164683027e-22
2.7445697958221e-22
2.5833514800081e-22
2.361613946687e-22
2.1561703796925e-22
2.0186608480173e-22
1.9373277194746e-22
1.8737618267184e-22
1.7962040199334e-22
1.6789134793544e-22
1.502587544482e-22
1.262952159618e-22
9.7776265566644e-23
6.8409435617967e-23
4.2481409322453e-23
2.3064406423516e-23
1.0866889316779e-23
4.4734978488219e-24
1.6504668418568e-24
5.6760988496872e-25
1.8921027017531e-25
6.2756527388823e-26
2.0951453930744e-26
7.0617397070971e-27
2.4035566995375e-27
8.2600899412293e-28
2.8647404676325e-28
1.0011162152175e-28
3.5148283357418e-29
1.2347220569563e-29
4.3205163762621e-30
1.4996067112981e-30
5.1531597172942e-31
1.7373357449316e-31
6.0515789063203e-32
1.4244056394215e-32
1.2943473842656e-32
0
0
0
3.5216991017792e-97
6.892700408563e-83
1.0702537585655e-68
1.9306590969185e-66
1.7380843997077e-64
1.0406518217154e-62
4.660136955286e-61
1.6642240917478e-59
4.9350954971886e-58
1.2496287569607e-56
2.7575784241026e-55
5.3855858073038e-54
9.4242307367325e-53
1.4922589023482e-51
2.1549457309276e-50
2.8574361157064e-49
3.498779261569e-48
3.9735202829778e-47
4.2009505408036e-46
4.1480270640855e-45
3.8366666524222e-44
3.3342501734981e-43
2.7283492289185e-42
2.098614380625e-41
1.5087444542512e-40
1.0155368441274e-39
6.6037348895188e-39
4.4280369356817e-38
3.2348079938674e-37
2.5628220174854e-36
2.0955050855889e-35
1.6830914529484e-34
1.2879898097095e-33
9.2516011822052e-33
6.1992927782409e-32
3.8674703503827e-31
2.2460363259797e-30
1.2150959089087e-29
6.1296527394559e-29
2.8862869582469e-28
1.2699058348422e-27
5.2264653451457e-27
2.0144189430613e-26
7.279158008612e-26
2.4683711799484e-25
7.859863291918e-25
2.350760345918e-24
6.6028122131564e-24
1.740747394885e-23
4.3034034500321e-23
9.9626816883511e-23
2.1559893806691e-22
4.3513537808451e-22
8.166661937797e-22
1.4197685796876e-21
2.2736262359632e-21
3.3209359989139e-21
4.3346959666855e-21
4.9265303634784e-21
5.0114615226953e-21
4.9516512704553e-21
4.7436881080631e-21
4.3173042240955e-21
3.7073795387468e-21
3.0748650630583e-21
2.581473476856e-21
2.2752651139363e-21
2.0920411106916e-21
1.9517685816098e-21
1.8028572892832e-21
1.6142185094911e-21
1.3716196480014e-21
1.0827885532983e-21
7.7799558245001e-22
4.9915957050403e-22
2.8141804786311e-22
1.3813851236089e-22
5.9253488975219e-23
2.2687485942466e-23
8.0399800528399e-24
2.742055430083e-24
9.2630354729546e-25
3.1450564253516e-25
1.07863003478e-25
3.7409229417455e-26
1.31217246642e-26
4.6519725708276e-27
1.6637428433526e-27
5.9815702680687e-28
2.1515534890526e-28
7.7029041882591e-29
2.7317809816834e-29
9.5757572052987e-30
3.2862295590675e-30
1.1653986346619e-30
2.7325577447989e-31
2.6009171551553e-31
0
0
0
3.8298497615658e-94
1.6929031485211e-81
9.5784880652803e-68
1.7165161720601e-65
1.5346391089262e-63
9.1230768153035e-62
4.0558242987073e-60
1.4378420558075e-58
4.2326803414117e-57
1.0639770369321e-55
2.330936644181e-54
4.5199084011747e-53
7.8539064136194e-52
1.2351047737724e-50
1.7719144784667e-49
2.3349836201285e-48
2.8427957955418e-47
3.212584412659e-46
3.3828264310302e-45
3.3302106605386e-44
3.0739006289192e-43
2.6681768535335e-42
2.1840527743961e-41
1.6860274475359e-40
1.2210308430786e-39
8.2590061375113e-39
5.3131758406866e-38
3.4493006764667e-37
2.4256510040452e-36
1.8802238468348e-35
1.5358862657136e-34
1.2491718623028e-33
9.744092645817e-33
7.1568688239598e-32
4.9126161736591e-31
3.1441478034389e-30
1.8760735062808e-29
1.0444067774843e-28
5.4303308867766e-28
2.6402467645962e-27
1.2017145399023e-26
5.1245110726155e-26
2.0485617942063e-25
7.680535290131e-25
2.7017731928159e-24
8.9192796039988e-24
2.7633057536958e-23
8.0313331759947e-23
2.1881397804731e-22
5.581896461479e-22
1.3311473560488e-21
2.9617692465017e-21
6.1329246371102e-21
1.1782547165138e-20
2.0918614803021e-20
3.4120061126211e-20
5.0604889134206e-20
6.673410261569e-20
7.5974249611221e-20
7.7094675055684e-20
7.5957904113108e-20
7.209452240221e-20
6.420498322491e-20
5.2861419944344e-20
4.0758413622241e-20
3.0873180270526e-20
2.4536809334195e-20
2.1002333156314e-20
1.8848682690007e-20
1.7098823822784e-20
1.5245601866538e-20
1.3045647737835e-20
1.047113009935e-20
7.7123468694706e-21
5.1076666866065e-21
2.9895100288703e-21
1.5293997742941e-21
6.8423996158471e-22
2.7231717835655e-22
9.9619356326753e-23
3.48115206556e-23
1.1987486957898e-23
4.1407217256337e-24
1.4452129109046e-24
5.1083087576719e-25
1.829395459121e-25
6.6330652289078e-26
2.4294278433193e-26
8.9515249229928e-27
3.2999430457708e-27
1.2099578666337e-27
4.388719323643e-28
1.5707322808647e-28
5.4914498898982e-29
1.9845697946424e-29
4.6291159512231e-30
4.6268319905065e-30
0
0
0
4.597886731792e-93
1.0475221549846e-80
7.457941391279e-67
1.3313984090356e-64
1.1853559919945e-62
7.0151790561212e-61
3.1040544533993e-59
1.0950564942967e-57
3.2074573612853e-56
8.0213939569907e-55
1.7481470395232e-53
3.3719459210462e-52
5.8278961001695e-51
9.1156767270454e-50
1.3007892654322e-48
1.7051323618861e-47
2.0653817087187e-46
2.3230006492223e-45
2.4358767073178e-44
2.3896608351197e-43
2.1997128635781e-42
1.9053411970084e-41
1.5576281252454e-40
1.2036623786401e-39
8.7647866294495e-39
5.9748262484599e-38
3.8330644971668e-37
2.4145587005885e-36
1.6106228689473e-35
1.1925108920856e-34
9.5496498998523e-34
7.7827688645731e-33
6.1567294306117e-32
4.6117336745165e-31
3.2370933456397e-30
2.1223008587955e-29
1.29941453521e-28
7.4376147277338e-28
3.9854726013365e-27
2.0022736663166e-26
9.444413275103e-26
4.186846963616e-25
1.7449946619581e-24
6.8341805343308e-24
2.5126408911308e-23
8.6621390502494e-23
2.7970920120141e-22
8.4519739465892e-22
2.3875992630118e-21
6.2982496862832e-21
1.5491241024122e-20
3.5459258103525e-20
7.5346938691952e-20
1.4815251978574e-19
2.6846424983992e-19
4.4563707597632e-19
6.7022693273936e-19
8.9210278510585e-19
1.0177252655591e-18
1.031201864434e-18
1.0138934692604e-18
9.5557791451062e-19
8.3740300202492e-19
6.6848028903967e-19
4.8768980398756e-19
3.3846664240175e-19
2.4214157686412e-19
1.9033122975742e-19
1.6268029393075e-19
1.4426932530221e-19
1.2775141367681e-19
1.0981996076284e-19
8.9414424100268e-20
6.7368638341265e-20
4.5976689975349e-20
2.7903858302028e-20