/*--------------------------------*- C++ -*----------------------------------*\
  =========                 |
  \\      /  F ield         | OpenFOAM: The Open Source CFD Toolbox
   \\    /   O peration     | Website:  https://openfoam.org
    \\  /    A nd           | Version:  7
     \\/     M anipulation  |
\*---------------------------------------------------------------------------*/
FoamFile
{
    version     2.0;
    format      ascii;
    class       surfaceScalarField;
    location    "4";
    object      alphaPhi0.water;
}
// * * * * * * * * * * * * * * * * * * * * * * * * * * * * * * * * * * * * * //

dimensions      [0 3 -1 0 0 0 0];

internalField   nonuniform List<scalar> 
11840
(
0
0
0
0
0
0
0
0
0
0
0
0
0
0
0
0
0
0
0
0
0
0
0
0
0
0
0
0
0
0
0
0
0
0
0
0
0
0
0
0
0
0
0
0
0
0
0
0
0
0
0
0
0
0
0
0
0
0
0
0
0
0
0
0
0
0
0
0
0
0
0
0
0
0
0
0
0
0
0
0
0
0
0
0
0
0
0
0
0
0
0
0
0
0
0
0
0
0
0
0
0
0
0
0
0
0
0
0
0
0
0
0
0
0
0
0
0
0
0
0
0
0
0
0
0
0
0
0
0
0
0
0
0
0
0
0
0
0
0
0
0
0
0
0
0
0
0
0
0
0
0
0
0
0
0
0
0
0
0
0
0
0
0
0
0
0
0
0
0
0
0
0
0
0
0
0
0
0
0
0
0
0
0
0
0
0
0
0
0
0
0
0
0
0
0
0
0
0
0
0
0
0
0
0
0
0
0
0
0
0
0
0
0
0
0
0
0
0
0
0
0
0
0
0
0
0
0
0
0
0
0
0
0
0
0
0
0
4.5751257660239e-221
2.2875628829542e-221
6.8093224758323e-220
3.4046612379162e-220
5.1944075042757e-219
2.5972037520818e-219
2.7035788978549e-218
1.3517894489357e-218
4.9446332804034e-219
2.2013264061988e-218
1.3251618739635e-198
0
2.2591285294421e-198
1.1285004510371e-198
4.1075065879994e-199
1.8483778115832e-198
7.4681940448454e-200
3.3606871810744e-199
1.3578552698451e-200
6.1103422395522e-200
1.7025952262225e-197
0
2.0628479581228e-196
-2.3811747840302e-216
3.7506328040494e-197
1.6877846686742e-196
5.6960303755974e-197
2.8480151877987e-197
3.0360426994661e-196
0
1.3363180948136e-195
0
5.3543362158727e-195
0
9.7351568042165e-196
4.3808205165645e-195
1.7700285198491e-196
7.9651282793765e-196
6.4884994633188e-196
0
2.180199300527e-195
0
3.9639987284862e-196
1.7837994276746e-195
1.2616256002806e-195
0
2.2938647277831e-196
1.0322391275023e-195
2.5650650204924e-196
1.2825325102462e-196
4.6637545827229e-197
2.0986895622196e-196
1.1022993809645e-196
0
2.4412001748852e-196
0
4.438545772538e-197
1.9973455976297e-196
1.0400699563607e-196
0
1.8910362842925e-197
8.5096632793141e-197
1.9984967483528e-197
9.9049918157484e-198
5.8461068094877e-197
0
1.062928510816e-197
4.7831782986717e-197
2.7806993450979e-197
0
5.0558169910872e-198
2.2751176459892e-197
9.1923945292497e-199
4.1365775381622e-198
2.0645168288042e-198
0
3.7536669614625e-199
1.689150132658e-198
7.4131311413969e-199
0
1.3478420257119e-199
6.0633347105402e-199
2.2333792348898e-199
1.0183258780337e-200
4.0606895182759e-200
1.8273102831503e-199
3.6940996070164e-200
1.8470498035082e-200
6.7165447405186e-201
3.022445132989e-200
5.977903233736e-201
2.988951616868e-201
5.1595852489594e-201
2.5797926244797e-201
9.3810642614259e-202
4.2214788302737e-201
7.9266216476585e-202
3.9633108238292e-202
1.1800256195134e-201
0
9.6793146162059e-202
4.8396573081029e-202
1.3533130122539e-201
0
2.4606118095379e-202
1.1072532289308e-201
3.2843662278626e-202
0
5.9715818094653e-203
2.6872082466731e-202
4.6185801152177e-203
2.3092900576088e-203
8.3975790664006e-204
3.7788265577933e-203
1.055179859578e-203
0
3.6050449188388e-204
0
6.5894495008877e-205
2.9334652541699e-204
2.1333961185572e-204
0
3.9226728816091e-205
1.7436140631984e-204
5.3688365372907e-205
0
3.930592511669e-205
1.9652962558345e-205
4.301541344725e-205
0
4.6365717892254e-205
0
1.044336561646e-205
3.6418175833093e-205
1.1904836153993e-205
0
8.6189634340376e-206
4.3094817170188e-206
1.0100396891605e-205
0
6.5120720675719e-206
4.6208850289961e-206
4.8443668260114e-206
2.4221834130057e-206
5.7392562682856e-206
0
4.1826749360717e-206
2.0913374680359e-206
4.7644229616975e-206
0
3.3953591150423e-206
1.7000002518633e-206
3.7039255551569e-206
0
3.9110452870707e-206
0
2.8567781244564e-206
1.4283890622282e-206
2.8547930187218e-206
0
2.5193637712727e-206
0
0
0
0
0
0
0
0
0
0
0
0
0
0
0
0
0
0
0
0
0
0
0
0
0
0
0
0
0
0
0
0
0
0
0
0
0
0
6.2768579675326e-166
3.1384289837663e-166
3.4553540578326e-162
1.7276770289163e-162
3.1410865840251e-162
3.1426976500925e-163
1.1608758181298e-151
5.8225722289381e-152
1.5139577207708e-136
0
1.2200177183528e-134
0
1.2200177183528e-134
0
1.1268655114113e-131
0
1.327109538686e-132
9.9415455754267e-132
1.327109538686e-132
0
3.6513561851184e-132
0
3.907384841816e-132
8.6612919383391e-133
4.1234050632055e-132
1.9531279448482e-132
2.3603527374334e-133
3.8873697478608e-132
8.5682516548328e-134
7.1887977432233e-134
9.3900067624519e-134
3.7708506711692e-134
2.7049360781246e-133
0
7.7052727857671e-131
0
2.4150039675542e-132
7.4637723890117e-131
3.5356031069091e-132
0
5.563401908687e-129
0
5.563401908687e-129
0
8.2080301101476e-128
0
4.3441526366624e-127
0
7.6471091074722e-129
4.2676815455877e-127
5.2734735076749e-129
1.508844256041e-129
3.1461339580144e-129
2.024593061486e-129
3.7412597554419e-129
1.658157703666e-129
7.7467897681504e-129
3.0465660158874e-129
2.1759752307928e-128
7.3428683651037e-129
3.0592266716479e-127
1.5296121656219e-127
5.5667645944665e-127
5.5563306365862e-128
5.1012957360175e-125
0
4.8535301136545e-125
2.3073291967867e-125
2.9492210224271e-125
1.6552659366716e-125
1.0564461018462e-125
1.0558465776313e-125
6.9687853505926e-126
-2.143140631712e-125
3.6555711551645e-126
0
1.9035171553572e-127
8.7723462879059e-126
2.0163184443715e-127
0
1.0898287876595e-128
2.5365841884755e-127
6.264312291868e-129
4.633975584727e-129
7.0940188369314e-129
0
6.4740826115087e-130
6.3560690009459e-129
6.4067431509641e-130
0
1.8780910702731e-130
4.2257049081143e-130
3.1434556023392e-131
1.5637455100392e-130
2.7139904870718e-131
0
8.448000692945e-133
2.6295104801424e-131
8.4473183498582e-133
0
2.6507969483617e-134
8.182238655022e-133
2.6360799251759e-134
0
2.6360799251759e-134
0
4.1426286373727e-134
0
4.1427610374182e-134
0
7.5322927953059e-135
3.3895317578876e-134
6.8475389048237e-136
6.8475389048235e-135
5.6753700514023e-136
0
5.6752767017389e-136
0
2.1066415311829e-137
5.4646125486206e-136
2.0977047017995e-137
0
3.7588993509782e-138
1.7218147667017e-137
3.4997739205663e-138
0
1.0746462126221e-139
3.3923092993041e-138
1.0746033937477e-139
0
9.7210650547151e-140
0
8.6561977904623e-140
0
7.3874987702728e-140
0
2.2658236606485e-141
7.1609164042079e-140
2.2656170186139e-141
0
1.8570712265812e-141
0
2.9603174549313e-142
1.5610394810881e-141
2.4040025624262e-142
0
7.4529289723168e-144
2.329473272703e-142
6.4283160282462e-144
0
5.1732535748876e-144
0
4.1984153236639e-144
0
3.4970720338244e-144
0
1.0736659395409e-145
3.3897054398703e-144
1.2097892172222e-145
0
0
0
0
0
0
0
0
0
0
0
0
0
0
0
0
0
0
0
0
0
0
0
0
0
0
0
0
0
0
0
0
0
0
0
0
-6.5112156881429e-104
-3.2556078440715e-104
-2.2153251811539e-102
-1.107662590577e-102
-4.1232611596619e-101
-2.061630579831e-101
-5.4034073397986e-100
-2.7017036698993e-100
-5.4340552920643e-99
-2.7170276460321e-99
-4.4050924035164e-98
-2.2025462017582e-98
6.0684783050373e-91
3.1418198177905e-91
4.933646869601e-90
2.8865469575951e-90
1.1342599772935e-88
5.4824755820445e-89
3.3381211630229e-87
1.8335660456626e-87
2.1533916162144e-86
1.3834061021695e-86
3.882556476211e-86
3.9652279556371e-86
3.4293175583722e-86
3.2815679632859e-86
6.0077981735834e-87
2.828537923734e-86
1.133480430354e-87
4.8743177432579e-87
2.0611913527934e-88
9.2736129507463e-88
3.7476315386605e-89
1.6864281989273e-88
1.92993017411e-89
1.8177013645505e-89
2.8387357593472e-82
1.6867516709169e-82
7.4063665207229e-81
4.7229046785673e-81
9.9884218516976e-81
1.4506064369885e-80
9.7882778857236e-80
6.0723060153008e-80
9.0333717056104e-79
5.033266986016e-79
7.0011136496294e-78
3.9362036992516e-78
6.4966628397824e-77
3.8366178806007e-77
1.8218050119321e-76
1.6788711671104e-76
1.8460680935218e-76
1.9137749518089e-76
3.4161508396487e-77
1.3037912852966e-76
6.4605321981329e-78
2.7700976110056e-77
1.1742855128604e-78
5.2862466853755e-78
2.1357131229197e-79
9.6071420056843e-79
3.8831098935999e-80
1.7474021335597e-79
7.0602059609263e-81
3.1770892975073e-80
6.4183715189174e-82
6.4183688090345e-81
6.362491321781e-75
5.6597994242667e-75
1.2975807330542e-75
5.8503027290054e-75
2.3628196584873e-76
1.0612987672055e-75
2.1481242582196e-77
2.1480072326653e-76
3.9056804703963e-78
1.7575562117176e-77
1.8286848460382e-72
1.4489086526123e-72
3.0261938168787e-73
3.0036229133835e-72
1.9009928738289e-72
1.4489086526123e-72
3.1120580247278e-73
1.8182343857886e-72
3.5788910727083e-74
2.754168917457e-73
5.4076786378314e-72
2.8978173052246e-72
5.5602834866755e-73
5.0042551380078e-72
3.6941123897909e-72
1.4489086526123e-72
4.1810626198912e-73
3.7629563579021e-72
1.6298795893748e-71
9.0556790788267e-72
1.0991228435155e-70
5.3609620146654e-71
2.2457406352863e-70
1.9487821377635e-70
6.4600576519774e-70
4.129389659945e-70
1.3332590968504e-69
1.0850416814432e-69
2.68310604729e-69
2.13333687739e-69
6.9653321003895e-69
4.5669600730339e-69
1.2819981943395e-68
1.0681354587058e-68
2.9703205831318e-68
2.1252592116517e-68
5.5779569219035e-68
4.6418969125541e-68
1.0029062934393e-67
8.3334705609321e-68
2.0225073727966e-67
1.5536647481961e-67
3.3864747586159e-67
2.9089953760117e-67
5.3341196805629e-67
4.6944672734355e-67
7.8637266608481e-67
7.1857492065223e-67
9.8201559111587e-67
9.5077717065019e-67
1.1037613100984e-66
1.0868879671523e-66
1.2213530808871e-66
1.1594767450951e-66
1.2860427353506e-66
1.2860427079664e-66
1.2367028654042e-66
1.3133056196736e-66
1.2534665426693e-66
1.2534666945143e-66
1.1410026725434e-66
1.2555747192643e-66
9.5741642511381e-67
1.1034253898839e-66
7.5612805468352e-67
8.5842178979915e-67
4.9438267063149e-67
6.2197306181146e-67
2.2165721813664e-67
3.6870082696484e-67
5.8260661003627e-68
1.3927754331611e-67
1.2010033118463e-68
3.1247333276668e-68
2.5068999695929e-69
6.817512800396e-69
5.9778393639025e-70
1.5573192143586e-69
1.5274859282754e-70
3.8252117818879e-70
3.9310308304669e-71
9.686770515913e-71
9.7395375887551e-72
2.477479298366e-71
2.8913489641397e-72
5.7708755788185e-72
2.3610555937002e-72
0
0
0
0
0
0
0
0
0
0
0
0
0
0
0
0
0
0
4.3002154232478e-95
2.1648071464097e-95
3.8462454288164e-93
1.977540092222e-93
2.1279896639848e-91
1.087287497978e-91
9.5043989134185e-90
4.8943661849018e-90
2.6226181722692e-88
1.3772952626239e-88
5.9092726462141e-87
3.1179419871753e-87
1.205665655517e-85
6.4022747519009e-86
1.7463675595789e-84
9.4489854001672e-85
3.2974955735335e-83
1.7424482440349e-83
5.4756943537541e-82
2.9575806886047e-82
7.5780441988006e-81
4.0719239555728e-81
9.6559842803693e-80
5.2879664883244e-80
1.0048995770035e-78
5.5561600040002e-79
1.2107183062487e-77
6.547295285831e-78
1.2150090850598e-76
6.74268859939e-77
1.1071939614828e-75
6.2111324248239e-76
8.7422549522513e-75
4.9578516441086e-75
6.8384629438263e-74
3.9298021393102e-74
4.7935841556482e-73
2.7193567546281e-73
4.9956338047387e-72
2.7881586913794e-72
4.0659096020869e-71
2.3301394229706e-71
2.3939861693117e-70
1.3732937323041e-70
1.5393832199111e-69
9.207814487351e-70
6.8646035861483e-69
4.1772036454812e-69
3.4760795814739e-68
2.1281570289569e-68
1.2859970271359e-67
8.2993487621631e-68
4.1613243145774e-67
2.5704798624264e-67
2.0393476944564e-66
1.3293794844064e-66
4.7073028646582e-66
3.7626187192573e-66
1.9797642899273e-65
1.2201804553301e-65
4.4187453599422e-65
4.3679611630495e-65
1.1244749155809e-64
5.7733051894219e-65
1.035740323781e-63
6.9887378608792e-64
5.8450066163776e-63
2.9413470649265e-63
3.4461906436966e-62
2.4405888042862e-62
2.4475422995909e-61
1.3651739765808e-61
7.9355156023872e-61
4.838394378537e-61
2.7187725754897e-60
2.377191836143e-60
3.6604695752299e-60
2.8252489361489e-60
7.1268031702921e-60
4.9286281000661e-60
1.9119424275401e-59
1.7723147511348e-59
1.8589006624273e-59
1.154991635571e-59
5.9107653274091e-59
5.7351308800769e-59
5.9107653274091e-59
0
6.4382772835249e-58
3.1861838222649e-58
3.4589974322501e-57
3.2371627634211e-57
6.1352881476067e-58
3.1609250135523e-57
2.1357592922957e-56
1.3764314112184e-56
4.7310838149713e-57
1.8352418816246e-56
2.1605964409466e-56
1.1419282818997e-56
3.4026677437214e-57
1.8203296665745e-56
3.4026677437214e-57
0
1.8976006818303e-56
1.3050608935997e-56
3.9225348944538e-57
1.5053471923849e-56
4.6827155550319e-56
1.3050608935997e-56
8.7842323640253e-57
3.8042923186294e-56
1.7663741923097e-57
7.0178581717155e-57
2.7951093314358e-56
0
5.1417668597903e-57
2.2809326454568e-56
1.6748972063687e-56
0
2.8535568961192e-57
1.389541516757e-56
2.8535568961244e-57
0
1.5038230819776e-55
0
1.5038230819778e-55
0
1.7634586311619e-55
0
2.8848539872098e-56
1.4749732324422e-55
5.3468335602992e-57
2.3501706312e-56
1.0635906638683e-56
0
1.0604271950767e-56
0
3.5068939042284e-58
1.0253582580469e-56
3.5070253332814e-58
0
1.7389262148644e-59
3.3331327335397e-58
1.7456864051013e-59
0
1.8689964638767e-59
0
2.0006440807235e-59
0
2.0006443473856e-59
0
3.1666302636869e-59
0
3.16916042423e-59
0
6.0869072768013e-61
3.1082915598563e-59
6.1329667691931e-61
0
6.6144922322757e-61
0
7.2254100148228e-62
5.8919555478987e-61
7.2254226974723e-62
0
1.1140453139744e-61
0
1.0236213795979e-61
0
6.0503860889692e-62
2.4892061111444e-62
2.4403303646212e-62
2.4892061111444e-62
1.7251011888593e-62
6.2230152778611e-63
9.0197685348604e-63
7.0008921875939e-63
5.2280313816881e-63
3.5004460937969e-63
4.6672614583958e-63
0
0
0
0
0
0
0
0
0
0
0
0
0
0
6.1360916915755e-86
3.0701651504848e-86
1.1083019881658e-83
5.5704870941367e-84
9.8593189132689e-82
4.9806729049636e-82
5.772575147461e-80
2.9319279095955e-80
2.5064645225386e-78
1.2801869887984e-78
8.621211608634e-77
4.4285824794493e-77
2.4496001879586e-75
1.2656640528753e-75
5.9169391821903e-74
3.0753031219656e-74
1.2400157028784e-72
6.4838762505482e-73
2.2884700853064e-71
1.2040119787749e-71
3.7613071825054e-70
1.9914609878664e-70
5.5557996139498e-69
2.9606862286143e-69
7.4342142875398e-68
3.987836414521e-68
9.0811906169277e-67
4.9034726480512e-67
1.020706658444e-65
5.5470821373117e-66
1.0644619663718e-64
5.8206823579248e-65
1.0389523278773e-63
5.7139610789345e-64
9.5720636480892e-63
5.2921199607636e-63
8.3884478797267e-62
4.6599566558497e-62
7.0340275989435e-61
3.9249043278275e-61
5.6647207366093e-60
3.1744154585057e-60
4.3875824879054e-59
2.4694552699289e-59
3.2672526843477e-58
1.847394418624e-58
2.3357105497883e-57
1.3272733723658e-57
1.6000451189854e-56
9.1416910196733e-57
1.0484902459144e-55
6.0256452962508e-56
6.5632044386614e-55
3.7956129251701e-55
3.9208653447981e-54
2.2826561065421e-54
2.2343003778135e-53
1.3099082647915e-53
1.2143006773034e-52
7.1713071800268e-53
6.294809129903e-52
3.7458111006426e-52
3.113424243427e-51
1.867242347491e-51
1.469854729409e-50
8.8866063351242e-51
6.626796323078e-50
4.0397917554597e-50
2.8546618259783e-49
1.755072881303e-49
1.1756042502105e-48
7.2908185258043e-49
4.6307768214823e-48
2.8975613290268e-48
1.745643888687e-47
1.1022688272061e-47
6.3005471800348e-47
4.0156317102196e-47
2.1783132727295e-46
1.4016258888198e-46
7.2171620206517e-46
4.6893111631615e-46
2.2923814123052e-45
1.5043798544526e-45
6.9829308550678e-45
4.6295246047876e-45
2.0406176626912e-44
1.3670714949464e-44
5.7225356936877e-44
3.8748500793782e-44
1.540411343189e-43
1.0545051860745e-43
3.9812025014972e-43
2.7560274210544e-43
9.8814381364041e-43
6.9192813440122e-43
2.3558371258387e-42
1.6690700006601e-42
5.3960099960096e-42
3.869100773836e-42
1.1876189685122e-41
8.6207521502513e-42
2.5120100380649e-41
1.8464912870602e-41
5.106833094916e-41
3.8024987608442e-41
9.9790490115411e-41
7.5290791835754e-41
1.8742062170651e-40
1.4333912727505e-40
3.3827094251785e-40
2.6235513673822e-40
5.8651930858225e-40
4.6153142200907e-40
9.7637787074409e-40
7.7999989491076e-40
1.5591332715297e-39
1.2654518754095e-39
2.3851132413831e-39
1.9686827484506e-39
3.4887271574827e-39
2.9322084122042e-39
4.8651594886472e-39
4.1714311538066e-39
6.435081115478e-39
5.6472978723498e-39
7.9777157134383e-39
7.2195934909506e-39
9.0602594159367e-39
8.5665559116345e-39
9.3861035402832e-39
9.2581192173592e-39
9.4010747702054e-39
9.3632798464503e-39
9.2592005961306e-39
9.2841824107034e-39
8.8239432555626e-39
8.990999525554e-39
7.9672705529935e-39
8.338797705459e-39
6.7112512003183e-39
7.2840233279908e-39
5.1880130220986e-39
5.8978775744249e-39
3.6171950699482e-39
4.3564831236021e-39
2.2302233614469e-39
2.8845004167664e-39
1.191088867864e-39
1.679805365588e-39
5.4206518406621e-40
8.4535829254031e-40
2.0992662285119e-40
3.6422257646641e-40
7.0892825180104e-41
1.3552991871968e-40
2.1900725660749e-41
4.4948667410949e-41
6.509547482983e-42
1.3895635918574e-41
1.9224486338312e-42
4.1660600260849e-42
5.7048976997098e-43
1.2396841313195e-42
1.700594280887e-43
3.6921687110213e-43
5.0765677656196e-44
1.1014249591034e-43
1.5145419604174e-44
3.2865909002322e-44
4.5139533421403e-45
9.8006836439472e-45
1.3446791663324e-45
2.9206631471798e-45
4.0072744888011e-46
8.7018736435311e-46
1.1943042376238e-46
2.5950178818117e-46
3.5833118312793e-47
7.7203444459535e-47
1.0340522428949e-47
2.3530516546595e-47
3.9235758395295e-48
5.9864842583857e-48
3.5911484439465e-48
0
0
0
0
0
0
0
0
0
0
0
0
5.4242246332926e-86
2.7090711000402e-86
1.4817062211878e-83
7.3993405362641e-84
1.7862228449238e-81
8.9406663684774e-82
1.334204371261e-79
6.7019664957265e-80
7.1082227346212e-78
3.5860147568636e-78
2.9179507661748e-76
1.4791457471832e-76
9.6922487712507e-75
4.9383546266239e-75
2.6941593705484e-73
1.3800972071798e-73
6.4202664005303e-72
3.307150303614e-72
1.3351464715246e-70
6.9170974405236e-71
2.4559021655368e-69
1.2799060679946e-69
4.0386089976729e-68
2.1176172785064e-68
5.9892221119896e-67
3.1601612054451e-67
8.0683363868743e-66
4.2846475622574e-66
9.9362440208584e-65
5.3112769135262e-65
1.1253422996189e-63
6.0551539898139e-64
1.1794479409109e-62
6.3876881618409e-63
1.1518144394297e-61
6.2771115931134e-62
1.0559113214324e-60
5.7881212467346e-61
9.155651528647e-60
5.0456152055093e-60
7.5606058163933e-59
4.1868256453841e-59
5.9787210692998e-58
3.325682540142e-58
4.5438219479381e-57
2.5383991191017e-57
3.3247647455325e-56
1.8654119021287e-56
2.3427236060345e-55
1.3203654051437e-55
1.5883198880179e-54
8.995144561249e-55
1.0346772609253e-53
5.8903650698304e-54
6.4661265647522e-53
3.7019740523466e-53
3.8710011409581e-52
2.2297255032018e-52
2.2172734852432e-51
1.2854878097954e-51
1.2140721570697e-50
7.0873807988602e-51
6.3510713839771e-50
3.7345752488467e-50
3.1731900296018e-49
1.8801465832074e-49
1.5141245413385e-48
9.0426516807997e-49
6.9006744523916e-48
4.1551949282377e-48
3.0046310969984e-47
1.8246315296556e-47
1.2502734999846e-46
7.6592224887897e-47
4.9739632470595e-46
3.0745663704431e-46
1.8926357627546e-45
1.1807334507045e-45
6.8910840297723e-45
4.339851029954e-45
2.4018930923208e-44
1.5273561008805e-44
8.0177434740841e-44
5.149128518799e-44
2.5642775960598e-43
1.6635519074975e-43
7.8608375057563e-43
5.1525746717738e-43
2.3106495721461e-42
1.5306225906956e-42
6.5151598546354e-42
4.3624707261243e-42
1.7627823063748e-41
1.1933712893129e-41
4.5782814935711e-41
3.1343476247861e-41
1.1417514357507e-40
7.9065349341422e-41
2.7347905801822e-40
1.9160939937567e-40
6.2929789648898e-40
4.4621445714358e-40
1.3913544163604e-39
9.9872763876761e-40
2.9560231185604e-39
2.1487171440116e-39
6.0349484422512e-39
4.4438721534191e-39
1.1838844437573e-38
8.8345296465919e-39
2.231285964655e-38
1.6881109399777e-38
4.0393646672278e-38
3.0998018269157e-38
7.0215702978585e-38
5.468362072859e-38
1.1713740897827e-37
9.2636460591509e-38
1.8739823452798e-37
1.5060062295769e-37
2.8718234961941e-37
2.3473673491607e-37
4.2087823068543e-37
3.5030696696569e-37
5.8836674006049e-37
4.9950905699481e-37
7.8089783450781e-37
6.7826405686763e-37
9.7367268237105e-37
8.7099737212554e-37
1.1165148316507e-36
1.0415802913503e-36
1.1662317240543e-36
1.1369669457788e-36
1.1692127484248e-36
1.1550226029878e-36
1.1555882095688e-36
1.1475632908519e-36
1.1075013040886e-36
1.1161916712893e-36
1.0085100465936e-36
1.0425536360462e-36
8.5932936981679e-37
9.1971826737834e-37
6.7417700715086e-37
7.5434699134107e-37
4.7900066300784e-37
5.6641329586225e-37
3.0252786264616e-37
3.8291044529257e-37
1.6654289121429e-37
2.2890400142552e-37
7.8613197068152e-38
1.189506546167e-37
3.1692029408125e-38
5.3178216643617e-38
1.1119998304352e-38
2.0559875580384e-38
3.5427116034532e-39
7.0581597315928e-39
1.0762350388462e-39
2.2422557232378e-39
3.2283162657034e-40
6.8591335251713e-40
9.7046653235432e-41
2.0730026790101e-40
2.9293642213309e-41
6.2582024467991e-41
8.8589147742695e-42
1.8915755195398e-41
2.6790044884836e-42
5.7203432283752e-42
8.0970949091896e-43
1.7294780104383e-42
2.4469781806864e-43
5.227464603298e-43
7.4002573780483e-44
1.5802482972173e-43
2.2387780864768e-44
4.7831644074709e-44
6.8220426980027e-45
1.4444420963917e-44
1.996087529032e-45
4.4761925748014e-45
7.7592510062317e-46
1.1450458181812e-45
7.13175956821e-46
0
0
0
0
0
0
0
0
0
0
2.5482040396312e-86
1.2688991049791e-86
9.1929415984856e-84
4.5694745298711e-84
1.4399796770425e-81
7.1573355416653e-82
1.3489125178265e-79
6.7152059938099e-80
8.7533670178874e-78
4.3694426288564e-78
4.2777290442508e-76
2.1428602871503e-76
1.6607161495275e-74
8.3534047413198e-75
5.3157489209619e-73
2.686027267442e-73
1.4414846881652e-71
7.3194799892143e-72
3.379334003362e-70
1.7248313108566e-70
6.9554321947226e-69
3.5693695468334e-69
1.272216507318e-67
6.5656506263137e-68
2.0882868403127e-66
1.0840463336481e-66
3.1009775165687e-65
1.6195118093662e-65
4.1937688383568e-64
2.2039393088964e-64
5.1954454836742e-63
2.7479041617824e-63
5.9265453593001e-62
3.1551728633259e-62
6.2553977154821e-61
3.3523461944206e-61
6.1397284107697e-60
3.3120121866456e-60
5.6354691856719e-59
3.0592819013578e-59
4.8691791479135e-58
2.6589047711297e-58
3.9890437705793e-57
2.1899067749599e-57
3.120147966021e-56
1.7210730524285e-56
2.3427011885808e-55
1.2979069305657e-55
1.6936851663875e-54
9.4236421174596e-55
1.1799812095918e-53
6.5947327840903e-54
7.9160851815835e-53
4.4455852533988e-53
5.1061621351201e-52
2.8827673128546e-52
3.1619831504755e-51
1.795467611077e-51
1.8774207428976e-50
1.0726991496548e-50
1.0678741508935e-49
6.142044887834e-50
5.8156323273385e-49
3.3684366863257e-49
3.0314961522062e-48
1.7687871799997e-48
1.5122727431237e-47
8.8914844337319e-48
7.2191093728197e-47
4.2784306385116e-47
3.2976598678362e-46
1.9705586490419e-46
1.4414439546934e-45
8.6873250351795e-46
6.0293349591973e-45
3.6659116251574e-45
2.4134545710249e-44
1.480789833344e-44
9.2455668883945e-44
5.7259217572976e-44
3.3899090734758e-43
2.11968797435e-43
1.1897273850091e-42
7.5130516251651e-43
3.9973030037049e-42
2.549953365758e-42
1.285921127769e-41
8.2886637421266e-42
3.9616065271689e-41
2.5807847612578e-41
1.1690640450185e-40
7.6989091482957e-41
3.3055066311314e-40
2.2010632907362e-40
8.9582097038014e-40
6.0325801709277e-40
2.3279416460545e-39
1.5856712800779e-39
5.8038101233902e-39
3.9991801195577e-39
1.3890173807784e-38
9.6833130528788e-39
3.1934196173025e-38
2.2524633159196e-38
7.0580297466405e-38
5.0371766438044e-38
1.5007742017047e-37
1.0837694088602e-37
3.0721159117289e-37
2.2449570391196e-37
6.0568594747095e-37
4.4795466382942e-37
1.1502781891649e-36
8.6125463966427e-37
2.1037048805399e-36
1.5953616502818e-36
3.702410655891e-36
2.8457449580933e-36
6.263452808457e-36
4.8836181529625e-36
1.0170216072491e-35
8.0525682563553e-36
1.5821898271511e-35
1.2737196338704e-35
2.353272453001e-35
1.9289563836122e-35
3.337132255237e-35
2.7902733741617e-35
4.4922672529003e-35
3.8422964527677e-35
5.6883809738635e-35
5.0060623536752e-35
6.6459910480144e-35
6.0885270362155e-35
7.052944772221e-35
6.7702227386472e-35
7.0885464160065e-35
6.9433415691076e-35
7.0370648583324e-35
6.9153973179834e-35
6.7929071067402e-35
6.7642459659569e-35
6.2493687177988e-35
6.3731781064541e-35
5.3957183262489e-35
5.6880207099357e-35
4.3020098920114e-35
4.7330428370942e-35
3.1173656542976e-35
3.6167462491798e-35
2.0171321522531e-35
2.4977821763928e-35
1.1439199385615e-35
1.5325881725125e-35
5.5938276205632e-36
8.2174229145002e-36
2.3447254840746e-36
3.8077677186736e-36
8.5452312301781e-37
1.5284231177453e-36
2.8097908904438e-37
5.4318561267162e-37
8.73534524936e-38
1.7747983456279e-37
2.6641103137964e-38
5.5451960420522e-38
8.1168871636334e-39
1.7033994195707e-38
2.4813756954549e-39
5.2145105575343e-39
7.6024024373e-40
1.5971849479381e-39
2.3304884276662e-40
4.8954596027983e-40
7.1440190224242e-41
1.5007655874478e-40
2.1907318408394e-41
4.6017144056796e-41
6.7257781215477e-42
1.4118180764682e-41
2.0662706264263e-42
4.339045304633e-42
6.3979987129033e-43
1.3306026894685e-42
1.8986098291747e-43
4.1951508558403e-43
7.5753055063985e-44
1.0779222914986e-43
6.9925099925848e-44
0
0
0
0
0
0
0
0
0
0
2.3325177226576e-84
1.1492731646366e-84
6.0917039556156e-82
3.0025552104661e-82
7.6921289928122e-80
3.7951712415793e-80
6.2397714560142e-78
3.084168033139e-78
3.6676884395633e-76
1.8174674502242e-76
1.6719791364462e-74
8.3115954990519e-75
6.1770322467613e-73
3.0820592305829e-73
1.9080649225002e-71
9.5597953772691e-72
5.0437459198166e-70
2.5383933797713e-70
1.1612153998117e-68
5.8722430583115e-69
2.36062696768e-67
1.1998461033584e-67
4.2842145715366e-66
2.189211378497e-66
7.0037796984715e-65
3.5989202973552e-65
1.0389651730398e-63
5.369866609688e-64
1.4072743428661e-62
7.3173977449647e-63
1.7499125356961e-61
9.1557827894871e-62
2.0070766916623e-60
1.0568756624229e-60
2.1322024189465e-59
1.1301537018425e-59
2.1062348406265e-58
1.1238440387986e-58
1.9426547324347e-57
1.0434463489588e-57
1.6812272246808e-56
9.0880821072532e-57
1.3735115293395e-55
7.4685983967678e-56
1.0668290316294e-54
5.8313650572189e-55
7.9353070446823e-54
4.3572251299121e-54
5.6866886264101e-53
3.1352715043857e-53
3.9408239552558e-52
2.18142448944e-52
2.6439155725817e-51
1.4698811887632e-51
1.7160720505699e-50
9.5878037465336e-51
1.0758880355201e-49
6.0452845643617e-50
6.5042678477382e-49
3.678080102904e-49
3.7858186424962e-48
2.1558657588482e-48
2.1186773481275e-47
1.2155846569283e-47
1.1386251661689e-46
6.5847690649165e-47
5.8696239660457e-46
3.4226612336928e-46
2.8992998570538e-45
1.7052137967941e-45
1.3709399157403e-44
8.1351392471639e-45
6.2006248661368e-44
3.7133558663377e-44
2.6807608057585e-43
1.6206715961107e-43
1.1072907644768e-42
6.7596679050226e-43
4.3679264037513e-42
2.6933190349884e-42
1.645018779569e-41
1.0248418410533e-41
5.913595855145e-41
3.7234003300729e-41
2.0288108765205e-40
1.2914138288245e-40
6.6416481265561e-40
4.2753844097924e-40
2.0744080720856e-39
1.3508748020042e-39
6.1806899242907e-39
4.0731643500596e-39
1.7564905657397e-38
1.1718507947006e-38
4.7606880082494e-38
3.216526313395e-38
1.2304892014554e-37
8.4225154335078e-38
3.0330605905976e-37
2.1039471080103e-37
7.1312284172555e-37
5.0144686242825e-37
1.6000335522493e-36
1.1406945361545e-36
3.428824618058e-36
2.4783998594339e-36
7.0275465736936e-36
5.1491052231501e-36
1.3802303191344e-35
1.0246864055724e-35
2.6042505525314e-35
1.9576638311265e-35
4.7342841922984e-35
3.600460497322e-35
8.3159650558672e-35
6.39286748139e-35
1.4146479434183e-34
1.0986068448212e-34
2.3331417370452e-34
1.830156509712e-34
3.7289227915376e-34
2.9561151225368e-34
5.7630039208008e-34
4.6232035452013e-34
8.5821982564161e-34
6.9810476755715e-34
1.2257894252627e-33
1.0137144437055e-33
1.6692295440561e-33
1.4084031058704e-33
2.147034689016e-33
1.8590120424827e-33
2.5618720511377e-33
2.3017256339308e-33
2.776098275465e-33
2.6164812641856e-33
2.8066095352141e-33
2.7213814555224e-33
2.7973348568477e-33
2.7205747817426e-33
2.7183635763901e-33
2.674432792075e-33
2.5304066237319e-33
2.5438536500329e-33
2.2150624876207e-33
2.2984558930578e-33
1.7960452906707e-33
1.9417565733877e-33
1.3279052499914e-33
1.5109035054142e-33
8.8025742626666e-34
1.0662179016352e-33
5.1393500448138e-34
6.713145472042e-34
2.6007661154254e-34
3.7112072322373e-34
1.132252188227e-34
1.7806845149687e-34
4.2843253562006e-35
7.4152413544526e-35
1.4548805990867e-35
2.7281524076681e-35
4.6343539752317e-36
9.1749895457309e-36
1.4385457643615e-36
2.9308628405959e-36
4.4449165337692e-37
9.1583242486241e-37
1.376565263258e-37
2.8442774308776e-37
4.2732770484417e-38
8.8306275241481e-38
1.3280504572852e-38
2.7437180788272e-38
4.129887372858e-39
8.5302459993673e-39
1.2854779788443e-39
2.6540445975627e-39
4.0080591233038e-40
8.2669141482912e-40
1.2510425890435e-40
2.5809450003028e-40
3.938565870697e-41
8.0410571321977e-41
1.1857116772876e-41
2.5812400542797e-41
4.8676250319493e-42
6.6524370122655e-42
4.5123838379805e-42
0
0
0
0
0
0
0
0
6.1807491234646e-95
3.0642695340934e-95
1.0387047493144e-82
5.0605592041882e-83
2.3788815015013e-80
1.1609172592934e-80
2.6945496993004e-78
1.3174813981678e-78
2.0049266446272e-76
9.8255723261064e-77
1.1011466443282e-74
5.4111596634368e-75
4.7604520399538e-73
2.346719853963e-73
1.6876227420956e-71
8.3488389189782e-72
5.0491453739324e-70
2.5076038838067e-70
1.3023426888861e-68
6.4952425921561e-69
2.9431494237461e-67
1.4744817838948e-67
5.9019197407348e-66
2.9709658834398e-66
1.0609662027868e-64
5.3678188414025e-65
1.7240321185004e-63
8.7688808105953e-64
2.5497315836632e-62
1.3040768320187e-62
3.4519625828728e-61
1.7757710118498e-61
4.2997287274484e-60
2.2252044079938e-60
4.9490041014529e-59
2.5771797228297e-59
5.2840151477779e-58
2.7693280772273e-58
5.2513012948522e-57
2.7703750169322e-57
4.8731273272129e-56
2.5881839354065e-56
4.2368291211954e-55
2.2653702751913e-55
3.4658269481957e-54
1.865090947836e-54
2.6833895428006e-53
1.45245734707e-53
1.9821821934752e-52
1.0781595128112e-52
1.4101223059009e-51
7.6996808105036e-52
9.7485483454796e-51
5.3396770957844e-51
6.5935984221376e-50
3.6224043028938e-50
4.3780506515257e-49
2.4136231249582e-49
2.8539704873152e-48
1.5803278357589e-48
1.8218550508476e-47
1.0143080668805e-47
1.1339592339855e-46
6.3537691838734e-47
6.8464542835234e-46
3.8639963519915e-46
3.9891560039243e-45
2.2692787249776e-45
2.2327921904135e-44
1.28097416449e-44
1.1960050221211e-43
6.9234488625348e-44
6.1133488267444e-43
3.5723307726335e-43
2.9755729461493e-42
1.7558753349895e-42
1.3771119885427e-41
8.2091698996372e-42
6.0541198594258e-41
3.6470211513531e-41
2.5266629358125e-40
1.5386528932903e-40
1.0006823193787e-39
6.1623524364403e-40
3.7601386514387e-39
2.3424325034354e-39
1.34034135412e-38