/*--------------------------------*- C++ -*----------------------------------*\
  =========                 |
  \\      /  F ield         | OpenFOAM: The Open Source CFD Toolbox
   \\    /   O peration     | Website:  https://openfoam.org
    \\  /    A nd           | Version:  7
     \\/     M anipulation  |
\*---------------------------------------------------------------------------*/
FoamFile
{
    version     2.0;
    format      ascii;
    class       volScalarField;
    location    "4";
    object      alpha.water;
}
// * * * * * * * * * * * * * * * * * * * * * * * * * * * * * * * * * * * * * //

dimensions      [0 0 0 0 0 0 0];

internalField   nonuniform List<scalar> 
6000
(
0
0
0
0
0
0
0
0
0
0
0
0
0
0
0
0
0
0
0
0
0
0
0
0
0
0
0
0
0
0
0
0
0
0
0
0
0
0
0
0
0
0
0
0
0
0
0
0
0
0
0
0
0
0
0
0
0
0
0
0
0
0
0
0
0
0
0
0
0
0
0
0
0
0
0
0
0
0
0
0
0
0
0
0
0
0
0
0
0
0
0
0
0
0
0
0
0
0
0
0
0
0
0
0
0
0
0
0
0
0
0
0
0
0
0
0
0
0
0
9.1502515320767e-219
1.3618644951665e-217
1.0388815008579e-216
5.4071577957057e-216
1.1879284991364e-218
2.9816142164178e-196
4.5187889657262e-196
7.6508262717802e-204
6.9552973524525e-205
3.2373753815727e-204
3.8308392590007e-195
4.6414079057764e-194
4.6573983780132e-202
1.1392060751195e-194
6.8310960737987e-194
3.0067157133307e-193
1.2047256485714e-192
2.2666428350817e-201
2.9972135851774e-202
1.4599123792467e-193
4.9054484261858e-193
7.210467392836e-204
2.8386576006313e-193
4.6575222500988e-207
5.1301300409848e-194
2.8277900568866e-206
2.4801736071701e-194
5.4927003934918e-194
6.2105771812665e-206
2.3401574018115e-194
1.0244602232452e-207
4.0013680930064e-195
1.3153740321347e-194
1.8250479036434e-210
6.2565735264703e-195
2.9657028434205e-210
2.5474626988356e-210
4.6451628648095e-196
4.0996428234213e-210
1.6679545068143e-196
9.7720258151462e-201
4.9741869846004e-197
3.6931733546686e-208
7.3881992140327e-198
1.2217320396926e-208
1.1955806467472e-198
1.0319170497919e-198
4.3683983497982e-207
1.5853243295317e-199
2.6550576439052e-199
1.9358629232412e-199
3.0449542775712e-199
1.1042680610697e-204
7.3898240126909e-200
1.7837931448724e-206
9.2371602304354e-201
4.2011043417464e-206
2.3741546840506e-201
8.1113510673873e-202
1.589351061478e-204
4.8001412667537e-202
1.0794366762821e-204
1.2079882208904e-202
7.861185023338e-203
9.6784680256312e-203
1.0432286525757e-202
5.2884847204891e-204
2.6785881346483e-203
1.7237926868075e-203
2.2725893006111e-203
1.2341719637539e-203
9.6887336520228e-204
1.2913326603643e-203
8.3653498721433e-204
1.0719951663819e-203
6.7895578829135e-204
8.333832499103e-204
8.7998518959091e-204
5.7135562489128e-204
6.423284292124e-204
1.0075912239068e-203
0
0
0
0
0
0
0
0
0
0
0
0
0
0
0
0
0
0
0
1.2553715935065e-163
6.9107081156652e-160
8.0553303368417e-164
2.3308482054167e-149
1.4681404727445e-134
2.7511499367712e-132
1.8127501221649e-243
2.3533364547723e-129
3.2784110683624e-146
4.0041661903663e-147
6.6756889575131e-130
7.9156599862225e-130
8.4486688737223e-130
3.7784818165959e-144
5.976299369743e-132
1.12545481951e-131
3.538102210162e-131
1.6092022801516e-128
0
2.3658726067973e-130
1.3300313084005e-126
0
1.7219712242687e-125
9.098401259659e-125
1.074269738881e-141
5.2410489230101e-127
4.2117296930435e-127
5.8703628254459e-127
1.1574266805728e-126
2.6663118391563e-126
6.1251340451829e-125
-2.1931999140837e-144
1.1470172162227e-122
1.0286400371364e-122
6.7293604833289e-123
4.5669069701076e-123
2.1118519317992e-123
7.6336927063729e-124
1.1172472910517e-124
4.0693097039466e-126
-3.1914484555396e-126
-8.0083323807325e-144
1.1681824366482e-126
3.7103862438994e-127
7.9325061881463e-128
1.5648728513814e-128
0
5.5318230057424e-129
6.5568221367247e-146
9.1576533594311e-134
2.003182872274e-147
8.8792908218556e-134
1.2513019344895e-148
6.1623082116525e-131
4.7244108845394e-135
0
-1.2189196090363e-149
7.9542520576773e-133
6.3348673614892e-137
0
6.1381388851402e-136
0
7.280796823485e-136
7.816341086298e-153
1.2034890430315e-140
2.0693115018262e-137
1.9595490050706e-137
1.663677903022e-137
0
2.6438649224259e-142
4.0896826751365e-139
0
4.8120351558539e-140
0
9.0245394628498e-142
1.148639952586e-141
9.9761324035576e-142
7.7086349675332e-142
0
6.5953727349357e-144
6.3624589168211e-143
0
0
0
0
0
0
0
0
0
0
0
0
0
0
0
0
0
-1.3022431376286e-101
-4.4306503623079e-100
-8.2465223193239e-99
-1.0806814679597e-97
-1.0868110584129e-96
-8.8101848070329e-96
6.4224770440108e-89
5.0009256373575e-88
1.0808801692472e-86
3.4184333835141e-85
2.5285941758887e-84
7.4937967724453e-84
5.9961511068918e-84
-1.9811226439823e-91
-3.9008924600953e-96
-5.7149369564115e-102
1.3892242184282e-161
0
4.1550642311346e-80
1.295419567308e-78
1.3782771710671e-78
1.0845861934803e-77
9.5097249559966e-77
7.2968155407419e-76
7.1477691333969e-75
3.175739861941e-74
3.5284570215679e-74
1.0032717628769e-75
-3.9146377193708e-83
-7.0743098305159e-86
-5.8486455336642e-89
0
0
2.4531984098587e-95
1.1485705460662e-72
1.4400771716072e-98
0
6.1210259145432e-91
2.6881428309889e-85
3.4521546090515e-70
-1.5709099088953e-87
3.4998894534644e-70
-9.6140648328268e-89
0
1.0763231410951e-69
2.6660370455091e-71
7.6492365003195e-70
1.4724365391638e-71
1.5658619157227e-69
1.4170319159478e-68
2.8941894051424e-68
8.509528634951e-68
1.830754978272e-67
3.5831270045336e-67
9.9785866418665e-67
1.7716944455791e-66
4.1543790951468e-66
7.9518007630299e-66
1.4199922638335e-65
2.9468722204217e-65
5.0399118147292e-65
8.1302332639651e-65
1.2561781191187e-64
1.6820324220021e-64
1.957337674384e-64
2.2081375579373e-64
2.4553366140927e-64
2.308108458316e-64
2.3832347625496e-64
2.2222202375241e-64
1.9451242170733e-64
1.6292895200291e-64
1.1783182795799e-64
6.359917370058e-65
2.1072336922628e-65
4.6563852554634e-66
7.8733896324533e-67
1.6079419393999e-67
4.1018509011026e-68
1.0986392555981e-68
2.9091256665276e-69
6.2303267158863e-70
3.0676290469765e-70
0
0
0
0
0
0
0
0
0
4.1229802636833e-93
3.6737823244234e-91
2.035571647636e-89
9.2211610648588e-88
2.5631350964739e-86
5.8218579870701e-85
1.1990792376943e-83
1.7263220464493e-82
3.2794959428431e-81
5.4918773770064e-80
7.6193238616716e-79
9.870166097409e-78
1.023224866175e-76
1.2415081252937e-75
1.2544670155215e-74
1.1591298875378e-73
9.2453372195211e-73
7.3051121471932e-72
5.0071950813607e-71
5.2049329262474e-70
4.340034182441e-69
2.6135120441722e-68
1.7138102368583e-67
7.7022726248249e-67
4.0403910865583e-66
1.5359998195441e-65
4.9697008519488e-65
2.6159988360194e-64
5.9603068776394e-64
2.4593918067125e-63
6.4562671030263e-63
9.8482576901808e-63
1.2824547614257e-61
5.4167080082365e-61
4.0921078960167e-60
2.8536308109219e-59
8.9979272888374e-59
4.5843500950738e-58
5.2716062441592e-58
1.1189384374144e-57
3.7246999439437e-57
2.210149360842e-57
1.0881061182209e-56
4.5278395394134e-73
9.3231454812657e-56
6.7477081648929e-55
5.1925263162071e-56
4.1821072241038e-54
7.6836593859486e-55
4.1747463178153e-54
5.7956346104492e-71
0
3.7958885376651e-54
1.1591269220898e-70
1.031441316848e-53
1.1591269220898e-70
1.1881050951421e-69
6.322814015811e-54
3.1727291584507e-68
3.4983380300693e-54
1.9779482161567e-67
3.2096948926994e-67
1.2910010298636e-52
1.9181316641281e-66
3.7886330178967e-53
8.570006709607e-66
1.2977469107026e-65
1.5466479163688e-53
9.8343685758585e-57
-1.8105291797285e-62
4.009091480274e-59
1.7896474623603e-64
1.5402374747784e-58
4.0104943258238e-57
4.2613243592328e-57
2.4693198891998e-64
4.6985422434585e-56
3.4735130847177e-59
2.0774499964272e-64
4.5454918545172e-59
1.189087418241e-58
5.0797941338981e-65
2.4644639394154e-65
2.7012282786589e-59
2.3826128062391e-59
1.1396084342563e-59
1.1620347502947e-59
2.6149688075306e-60
3.2211751228978e-60
9.6884374937585e-61
1.070807025775e-60
0
0
0
0
0
0
0
5.797547427339e-84
1.0524470396222e-81
9.411119932317e-80
5.539446569761e-78
2.4182521886929e-76
8.3634434863601e-75
2.3895731773983e-73
5.8045372094604e-72
1.2234670070679e-70
2.2712666780016e-69
3.7557066815477e-68
5.5821142769141e-67
7.5168617353542e-66
9.2407302768496e-65
1.045167075976e-63
1.0965623734212e-62
1.0763600108825e-61
9.9685878181746e-61
8.7778894282118e-60
7.3936328614113e-59
5.9803164251573e-58
4.6526347645567e-57
3.4809389221725e-56
2.5011226314294e-55
1.7228073599306e-54
1.135657576109e-53
7.154164038347e-53
4.3028092211252e-52
2.4693964916827e-51
1.3520491403026e-50
7.0630451475353e-50
3.5213407865539e-49
1.6761584098899e-48
7.6211621687576e-48
3.3117109905455e-47
1.3760712275578e-46
5.4703749695654e-46
2.0816338142255e-45
7.586045873169e-45
2.6488095211528e-44
8.8653660181147e-44
2.8452847508945e-43
8.7598442414589e-43
2.5879362662735e-42
7.3388762470159e-42
1.9982272993768e-41
5.2252797835781e-41
1.3125753396295e-40
3.1679724580846e-40
7.3479426794357e-40
1.6381509834603e-39
3.5108491921581e-39
7.2342281157845e-39
1.433257724588e-38
2.7302771721214e-38
5.0002373257671e-38
8.80157206558e-38
1.4883659583327e-37
2.4160990101963e-37
3.7609350447503e-37
5.6048332801672e-37
7.9780619374947e-37
1.080704282313e-36
1.3826756440557e-36
1.6428396526993e-36
1.7762330677432e-36
1.7897387589949e-36
1.7731496683653e-36
1.7163648581429e-36
1.5925579796456e-36
1.3901525489994e-36
1.123724473743e-36
8.2731248424157e-37
5.4453541349746e-37
3.1380454104029e-37
1.5506324941951e-37
6.4811860863782e-38
2.3048950385031e-38
7.2259441890583e-39
2.1160485943634e-39
6.1044575348636e-40
1.7812350376526e-40
5.2694460925814e-41
1.5699403883535e-41
4.6839162307078e-42
1.3961898367901e-42
4.1582758846873e-43
1.2383753891368e-43
3.6941322080885e-44
1.0972540832777e-44
3.3948077786661e-45
7.665696241404e-46
5.707142559222e-46
0
0
0
0
0
0
5.1202356137429e-84
1.4036804870641e-81
1.699468659282e-79
1.2753682889841e-77
6.8283724358088e-76
2.8174338111758e-74
9.4075695188085e-73
2.6290697583643e-71
6.2995200348123e-70
1.3173897150022e-68
2.4371826695643e-67
4.0314777303815e-66
6.0148329404019e-65
8.153076883264e-64
1.0104090341682e-62
1.1516554005273e-61
1.2146675560918e-60
1.1934887655926e-59
1.1004698383455e-58
9.5935002201046e-58
7.9617097848824e-57
6.3253774537799e-56
4.8290634997972e-55
3.5495866074776e-54
2.5130068329326e-53
1.7123737049152e-52
1.1215490923551e-51
7.0500352107036e-51
4.2470625327896e-50
2.4489676296041e-49
1.3504480908138e-48
7.1172184101348e-48
3.5837565124959e-47
1.7239400932567e-46
7.9232002348559e-46
3.4799433043981e-45
1.4610870323371e-44
5.8664865104193e-44
2.2535071113784e-43
8.2852631814258e-43
2.9168160911425e-42
9.8367941608585e-42
3.1792295812778e-41
9.8512305746435e-41
2.9277230414865e-40
8.3484294345936e-40
2.2849262476792e-39
6.0045557789491e-39
1.5155425350132e-38
3.674987328981e-38
8.5633938979916e-38
1.9178538848832e-37
4.128698784463e-37
8.5439106927276e-37
1.6995430253006e-36
3.2493255907069e-36
5.9697806960148e-36
1.0536654838363e-35
1.7858243197654e-35
2.9046057540531e-35
4.5293889278938e-35
6.7624118546802e-35
9.6469190880713e-35
1.3105266805628e-34
1.6839767082272e-34
2.0160441193515e-34
2.2019605511877e-34
2.2291412861484e-34
2.2123828829678e-34
2.1501199634459e-34
2.0095361806997e-34
1.771483825375e-34
1.450689068631e-34
1.0859037814663e-34
7.3007417332073e-35
4.3228364636383e-35
2.2097864944471e-35
9.6149337888841e-36
3.5689513491088e-36
1.1631852081518e-36
3.5063496284423e-37
1.0305617504072e-37
3.0455174866738e-38
9.1112780111264e-39
2.7470973414363e-39
8.3032058344758e-40
2.5094656503404e-40
7.5819149547969e-41
2.2914185721554e-41
6.939147776312e-42
2.0922626805532e-42
6.5844202543928e-43
1.4889939055087e-43
1.1552245311625e-43
0
0
0
0
0
2.4042895023924e-84
8.6967642054116e-82
1.3669153888234e-79
1.2855825297131e-77
8.3789773536362e-76
4.1138794154061e-74
1.604902726084e-72
5.1630282752109e-71
1.4073356071397e-69
3.3168442001786e-68
6.8641088629733e-67
1.2625491698216e-65
2.084335580023e-64
3.1133731469945e-63
4.2360133691057e-62
5.2802935689381e-61
6.0613985059701e-60
6.4386662998957e-59
6.3599611685688e-58
5.8739711318276e-57
5.1052033820625e-56
4.2052090329143e-55
3.3056705431192e-54
2.4936164920951e-53
1.8110639367298e-52
1.2677182372677e-51
8.5473974254845e-51
5.5431790304857e-50
3.4525334304957e-49
2.0626235240612e-48
1.180897699109e-47
6.4753883773862e-47
3.3996795456541e-46
1.7086570522752e-45
8.2202149182773e-45
3.7854030628386e-44
1.6685703907591e-43
7.0403218135818e-43
2.8436508957378e-42
1.0995729083607e-41
4.0707297696469e-41
1.4430001545466e-40
4.8984814917729e-40
1.5926628931251e-39
4.9605885703804e-39
1.4804222339979e-38
4.2344555596695e-38
1.161210718008e-37
3.0542075468834e-37
7.7084726656088e-37
1.8679588966114e-36
4.3489033331309e-36
9.7346051128196e-36
2.0965440261482e-35
4.347427696864e-35
8.6841817386255e-35
1.6714720826606e-34
3.0994706611481e-34
5.5342339549051e-34
9.5059178923339e-34
1.5686468884143e-33
2.4828341691721e-33
3.7620837897625e-33
5.4443273071056e-33
7.4999307011509e-33
9.7760331859888e-33
1.1900006798021e-32
1.3241623860837e-32
1.3539300441697e-32
1.346472270521e-32
1.3150349474148e-32
1.2402606285997e-32
1.106014276271e-32
9.1899732181472e-33
7.0019766677471e-33
4.8110131586565e-33
2.9261766569113e-33
1.5458428174707e-33
6.9910085553005e-34
2.7049676337718e-34
9.1636646989176e-35
2.846879708223e-35
8.5387606058256e-36
2.5585016617692e-36
7.7441766153279e-37
2.3630729139543e-37
7.2358307324068e-38
2.2174318776776e-38
6.7976425626452e-39
2.085475333039e-39
6.4139831226753e-40
1.9640067252812e-40
6.2913720464002e-41
1.4220407647465e-41
1.1547386912237e-41
0
0
0
0
0
2.2008176432202e-82
5.7674919573583e-80
7.3099711540285e-78
5.9537913753494e-76
3.514708652514e-74
1.6095291343723e-72
5.9745102255521e-71
1.8545550873795e-69
4.9270428856795e-68
1.1402314122788e-66
2.330316178187e-65
4.2523262583621e-64
6.9906675229814e-63
1.0429966796178e-61
1.4210880799871e-60
1.7777977631594e-59
2.0517139032915e-58
2.1934460092229e-57
2.1806848743515e-56
2.0242855708051e-55
1.7629028451186e-54
1.4488096330631e-53
1.1314347174954e-52
8.4569084027438e-52
6.0873704191599e-51
4.2363781585015e-50
2.8544470884777e-49
1.8611852341716e-48
1.1726156624812e-47
7.1267081091009e-47
4.1717767676647e-46
2.348915420598e-45
1.2705757042284e-44
6.5952313638384e-44
3.2817189631237e-43
1.5638924334109e-42
7.131756771268e-42
3.1101631991766e-41
1.2964049971266e-40
5.1629366621228e-40
1.9639164180877e-39
7.1338434412759e-39
2.47414337503e-38
8.1915477387393e-38
2.5887584084815e-37
7.8081359667804e-37
2.2473977862389e-36
6.1722084960601e-36
1.6173198837809e-35
4.0433942990733e-35
9.6461094946161e-35
2.1967169331958e-34
4.7787880155603e-34
9.9422888053322e-34
1.9816273009144e-33
3.7923996899497e-33
6.9878910050008e-33
1.2432487618775e-32
2.14106406268e-32
3.5746143333944e-32
5.7863974892115e-32
9.0681799916082e-32
1.3717734436559e-31
1.9948977400212e-31
2.7747615764436e-31
3.6657590753915e-31
4.5429438318907e-31
5.1689643287663e-31
5.364910853843e-31
5.3491335524089e-31
5.2514268294602e-31
4.9985688813906e-31
4.5132528656043e-31
3.8077179783761e-31
2.9546111759031e-31
2.0750991825162e-31
1.2960287518694e-31
7.0688846451686e-32
3.3182385888958e-32
1.3366864149728e-32
4.7056734291065e-33
1.5081294424642e-33
4.623147121635e-34
1.4062276858788e-34
4.3089983626303e-35
1.3309844420411e-35
4.1291373288155e-36
1.2832294481391e-36
3.9923590650058e-37
1.2438196100149e-37
3.8869466623682e-38
1.2093296853073e-38
3.9464586362166e-39
8.8924173855556e-40
7.599625872282e-40
0
0
0
0
5.8242130540444e-93
9.7983581458638e-81
2.2528479696083e-78
2.5621367952902e-76
1.9144471671936e-74
1.0560653488527e-72
4.586318854822e-71
1.6335271903189e-69
4.9109102572927e-68
1.2729700846023e-66
2.8914095743923e-65
5.8284197945616e-64
1.0533596944793e-62
1.7210703335512e-61
2.5596989891294e-60
3.4855020934311e-59
4.3672600128485e-58
5.0573037358899e-57
5.4332948576464e-56
5.4340899269471e-55
5.075503895905e-54
4.4415853223081e-53
3.6564987562203e-52
2.8478560760496e-51
2.1146290736973e-50
1.5107723354622e-49
1.0479572964988e-48
7.1074150859901e-48
4.7309369209436e-47
3.0921005888112e-46
1.9799621724527e-45
1.2370320570399e-44
7.5032312579077e-44
4.3958237160277e-43
2.4760150859934e-42
1.3357636789436e-41
6.8815336314102e-41
3.3781338392193e-40
1.5777692004611e-39
7.003951965098e-39
2.9532140774749e-38
1.182305086679e-37
4.4931440855822e-37
1.6207033058255e-36
5.5482596506062e-36
1.8025366059467e-35
5.5571821992024e-35
1.6256375775439e-34
4.5115276912496e-34
1.1875521790703e-33
2.963901955223e-33
7.01060971463e-33
1.5706331252366e-32
3.3307124927988e-32
6.6817386193353e-32
1.267724439042e-31
2.2760088296008e-31
3.8740644480019e-31
6.2762826850407e-31
9.7380615244974e-31
1.4586413122325e-30
2.1269375486361e-30
3.0393635324202e-30
4.2695793259871e-30
5.8880366618699e-30
7.9265168306624e-30
1.0318623938202e-29
1.280229800241e-29
1.4785551677696e-29
1.5604364856824e-29
1.5611123994031e-29
1.5405806429813e-29
1.478452201142e-29
1.3520001840927e-29
1.1585067911713e-29
9.1583038993263e-30
6.5756778357112e-30
4.2163410448039e-30
2.3727536510777e-30
1.1549365408085e-30
4.8395330633266e-31
1.7703054620716e-31
5.8588865295285e-32
1.838461055185e-32
5.6839152845372e-33
1.7643861419981e-33
5.5182330914473e-34
1.734660884196e-34
5.4677756975926e-35
1.7269084794312e-35
5.4657325189586e-36
1.7363984142432e-36
5.4920506034917e-37
1.8275375179686e-37
4.0899062680048e-38
3.7052748169328e-38
0
0
0
0
3.8201965202523e-91
2.8391263265038e-79
6.0939032526277e-77
6.5122434169157e-75
4.6087186804263e-73
2.4267396005224e-71
1.0132677957128e-69
3.4924083479976e-68
1.0218023405498e-66
2.5904513233632e-65
5.7794395393066e-64
1.1487116386294e-62
2.0540473963281e-61
3.3305982076753e-60
4.9294307803647e-59
6.6962610136138e-58
8.3880500750554e-57
9.7284678797289e-56
1.0484974064068e-54
1.0535437370456e-53
9.8970835518286e-53
8.7121652147513e-52
7.2031797176305e-51
5.6142030819703e-50
4.1528138128866e-49
2.9480630075885e-48
2.0389702191164e-47
1.3954741869622e-46
9.554132556728e-46
6.5586569649208e-45
4.4861091699835e-44
3.0229796123927e-43
1.9825395346691e-42
1.2524225022521e-41
7.5637966627314e-41
4.345185898542e-40
2.3670991492151e-39
1.2206889154628e-38
5.9537906615941e-38
2.7456070730508e-37
1.1971194084126e-36
4.9359157966895e-36
1.925055147982e-35
7.1037453326721e-35
2.4809426615135e-34
8.2021894145113e-34
2.5674325004362e-33
7.6095723065946e-33
2.1355036770252e-32
5.6734301759425e-32
1.4264335948796e-31
3.3922759396743e-31
7.6251205430925e-31
1.6184476574208e-30
3.2397441410279e-30
6.1069122617727e-30
1.0821480411877e-29
1.7998903385539e-29
2.8087141860714e-29
4.1206762657276e-29
5.7185729980942e-29
7.5878706049183e-29
9.7602062006036e-29
1.233696802226e-28
1.5473982499459e-28
1.93203048669e-28
2.3898431432026e-28
2.889228941028e-28
3.3301180614719e-28
3.5554017258031e-28
3.5736836578614e-28
3.539277578106e-28
3.4210407216961e-28
3.1657112311406e-28
2.7543588102849e-28
2.2188315660351e-28
1.62944775625e-28
1.0731094066481e-28
6.2313302249527e-29
3.1438236156596e-29
1.3693653357477e-29
5.2026738037942e-30
1.7786788551738e-30
5.7191266663014e-31
1.7992444137101e-31
5.6625444010969e-32
1.794029670659e-32
5.7160875896123e-33
1.8279551019396e-33
5.8628701009625e-34
1.8859988931829e-34
6.094596048677e-35
1.9607932158463e-35
6.6607251263317e-36
1.4722231343318e-36
1.4283265690514e-36
0
0
0
0
9.6593395008402e-90
6.0335698370258e-78
1.2434055898075e-75
1.2784809445064e-73
8.731899739658e-72
4.4522619265837e-70
1.8063839897633e-68
6.0704135012055e-67
1.7372972921685e-65
4.3213092227672e-64
9.486220091534e-63
1.8602233304679e-61
3.2903155575659e-60
5.290235736435e-59
7.7819419419164e-58
1.0530038520204e-56
1.316561338079e-55
1.5267823378507e-54
1.6479411977935e-53
1.6608500975725e-52
1.5672582096818e-51
1.3874231439248e-50
1.1535147537478e-49
9.0204013786611e-49
6.6651070644929e-48
4.7069971472741e-47
3.24256542365e-46
2.2344850167995e-45
1.569863379985e-44
1.1277370377012e-43
8.1773287816332e-43
5.8667407836911e-42
4.0876638611608e-41
2.7284904100427e-40
1.729799918494e-39
1.0365474393787e-38
5.8569477276152e-38
3.117930284608e-37
1.5637718151551e-36
7.3924674819237e-36
3.2961081130978e-35
1.3871429439178e-34
5.5137495916996e-34
2.0712965031341e-33
7.3574056588122e-33
2.4720815381476e-32
7.8590761685429e-32
2.3643355779553e-31
6.7308535409663e-31
1.8129018878334e-30
4.6181019371097e-30
1.1119953389787e-29
2.5290896196075e-29
5.427336887935e-29
1.0973567737218e-28
2.0866727123177e-28
3.7234632378092e-28
6.2179209891744e-28
9.6866347256481e-28
1.4035877808198e-27
1.8904496707997e-27
2.3796940996803e-27
2.8390130959225e-27
3.2737618108559e-27
3.7197679583044e-27
4.2239032556285e-27
4.8240898339919e-27
5.5186793328613e-27
6.2052924151845e-27
6.6344383821118e-27
6.7005503805386e-27
6.6527463653116e-27
6.4710678313006e-27
6.0547179275092e-27
5.3468367253934e-27
4.3871992573203e-27
3.2924266755049e-27
2.2238620149413e-27
1.3300508917099e-27
6.942695980705e-28
3.1397329156456e-28
1.239044702536e-28
4.3819799396233e-29
1.4467563019395e-29
4.6398291320252e-30
1.4820730081367e-30
4.7591789951647e-31
1.5374220040536e-31
4.9896364993692e-32
1.6258548688362e-32
5.318614397657e-33
1.7494010950877e-33
5.7289016336649e-34
1.9877381464707e-34
4.4000864983598e-35
4.4566336375407e-35
0
0
0
0
1.2218309865225e-88
1.0040994288891e-76
2.0169120958544e-74
2.0226179074225e-72
1.3488811097827e-70
6.7253556543791e-69
2.6724539605311e-67
8.8110405762304e-66
2.4782420109006e-64
6.0686776060692e-63
1.3138020173047e-61
2.5451784168983e-60
4.4553347191001e-59
7.1019485324039e-58
1.0376072364272e-56
1.3970591366247e-55
1.7411701453501e-54
2.0161154745832e-53
2.1760593986445e-52
2.1961331649066e-51
2.078330346271e-50
1.8481301110889e-49
1.5452379238064e-48
1.2144115953759e-47
8.9865012765514e-47
6.3229802799679e-46
4.3308894134263e-45
2.9875856871021e-44
2.1338993101141e-43
1.5844121605121e-42
1.1996369721756e-41
9.0110381255554e-41
6.560002675583e-40
4.5572850171481e-39
2.9944757310469e-38
1.8526335209552e-37
1.0771968163021e-36
5.8840246751676e-36
3.0208278943998e-35
1.4589196205033e-34
6.6350801986467e-34
2.8446658955027e-33
1.1508305995725e-32
4.3969602468821e-32
1.5876387850444e-31
5.4204455013522e-31
1.7504801446349e-30
5.3481418369452e-30
1.5459127337058e-29
4.2270682833559e-29
1.0930084588943e-28
2.6712708053667e-28
6.1660943848885e-28
1.3429660625074e-27
2.7560372334297e-27
5.3202413711829e-27
9.6381510700618e-27
1.6343396529148e-26
2.583479833326e-26
3.7868336973124e-26
5.1215636826883e-26
6.3706488048652e-26
7.3205428111656e-26
7.9276113060431e-26
8.3254179185417e-26
8.6682608099617e-26
9.0619149864647e-26
9.5652199719017e-26
1.0149295143154e-25
1.059576839488e-25
1.0683380875392e-25
1.0623759965396e-25
1.0373866462373e-25
9.7709042457584e-26
8.7171248821085e-26
7.2552985985458e-26
5.5489486365395e-26
3.8392018295124e-26
2.3643565856554e-26
1.2770732699877e-26
5.9975847276382e-27
2.4594904618413e-27
9.0068085776281e-28
3.0581096714528e-28
1.0013600744105e-28
3.2502269728561e-29
1.0585981274995e-29
3.4687902302265e-30
1.1429538589984e-30
3.7853092143378e-31
1.2599199716168e-31
4.2209055022952e-32
1.4082402450972e-32
4.9869934015621e-33
1.1238637950234e-33
1.1612298020136e-33
0
0
0
0
2.1523878999829e-88
1.3639482079627e-75
2.6945373165135e-73
2.6577486721844e-71
1.7439479124871e-69
8.5600507619933e-68
3.3509806184994e-66
1.0892755776789e-64
3.0232542560646e-63
7.3119603603382e-62
1.5649215038641e-60
3.0001600677069e-59
5.2029308263685e-58
8.2261828499971e-57
1.1935895214392e-55
1.598205099866e-54
1.9837332735847e-53
2.2909437941917e-52
2.4695937678863e-51
2.4923675146003e-50
2.3616577896198e-49
2.1061126804436e-48
1.7692901444601e-47
1.3983912257746e-46
1.0386826147843e-45
7.2963525024482e-45
4.961806441084e-44
3.4011999986415e-43
2.4388244790688e-42
1.8435384980581e-41
1.4354021975062e-40
1.1131703626113e-39
8.366898353103e-39
5.9919638614726e-38
4.0512571760122e-37
2.5747972954197e-36
1.5357352546871e-35
8.5944793972639e-35
4.5152857792908e-34
2.2289956852133e-33
1.0350526442918e-32
4.5262194830464e-32
1.8659542566943e-31
7.2591502046098e-31
2.667198063997e-30
9.261978232935e-30
3.0412377746222e-29
9.4457666725103e-29
2.7754094146309e-28
7.7143714745932e-28
2.0279337368125e-27
5.0395847696798e-27
1.1831353415539e-26
2.621568736795e-26
5.4754631349175e-26
1.0762110906863e-25
1.9863365956442e-25
3.4333022403808e-25
5.5362401928419e-25
8.2827131941338e-25
1.1411064413214e-24
1.4327674217943e-24
1.6273091377586e-24
1.6980743713646e-24
1.7021004869083e-24
1.690521378219e-24
1.6581100538159e-24
1.6086090137679e-24
1.5649671125662e-24
1.5363456024131e-24
1.5121661079486e-24
1.4810799270975e-24
1.4296309980314e-24
1.3416711287786e-24
1.2044131956562e-24
1.0166966008923e-24
7.9349938912794e-25
5.6306684073009e-25
3.5730364060837e-25
1.9974160832695e-25
9.7422185169662e-26
4.1530452072854e-26
1.5763610795633e-26
5.5121340940094e-27
1.8454981322576e-27
6.0933576348174e-28
2.0142698207435e-28
6.6978947023223e-29
2.2414408544431e-29
7.5482580271757e-30
2.5576805712204e-30
8.7328630379121e-31
2.970880139666e-31
1.0741657326831e-31
2.4697268230221e-32
2.6029472168785e-32
0
0
0
9.3606893221299e-103
3.6711195166594e-88
1.5561640427261e-74
3.0410458010063e-72
2.9665966460137e-70
1.9252495849295e-68
9.3475538445125e-67
3.6204478828336e-65
1.1647581340271e-63
3.2006561239783e-62
7.6672414535808e-61
1.6260745756856e-59
3.0907175011748e-58
5.3172702895134e-57
8.3457996496829e-56
1.2030845756011e-54
1.6019200151151e-53
1.9793307670163e-52
2.2781446067643e-51
2.4504228651845e-50
2.4703382437047e-49
2.3406453611649e-48
2.0899340106058e-47
1.7612658338633e-46
1.3993740179365e-45
1.0450305250557e-44
7.3487678363447e-44
4.9615553693884e-43
3.3565949884794e-42
2.3839571194252e-41
1.8060373936657e-40
1.4258644043355e-39
1.128958530418e-38
8.6870953545345e-38
6.373217600455e-37
4.4140987287004e-36
2.8733410364236e-35
1.7550810000946e-34
1.005771575255e-33
5.4102864909836e-33
2.7341224768021e-32
1.299282552903e-31
5.8117873150713e-31
2.449488298211e-30
9.7371375264017e-30
3.6540952764247e-29
1.2956043994764e-28
4.3429920198061e-28
1.3769681542432e-27
4.1302337751311e-27
1.1720249384514e-26
3.1455927116998e-26
7.9809932462291e-26
1.9128214317682e-25
4.32620856867e-25
9.2208534743118e-25
1.8489258323993e-24
3.4803319649491e-24
6.1329068552842e-24
1.0080333810316e-23
1.5373037164856e-23
2.1567322684047e-23
2.7412134655451e-23
3.097923722545e-23
3.1716168798395e-23
3.1495724439571e-23
3.065152272657e-23
2.8852604331401e-23
2.6157435787537e-23
2.3292568065023e-23
2.0970303084902e-23
1.9397519804632e-23
1.828792759724e-23
1.7266397241449e-23
1.604485562235e-23
1.4419567529532e-23
1.2303563422552e-23
9.7825908916436e-24
7.116707741005e-24
4.6547732853203e-24
2.6947022271016e-24
1.3659236735537e-24
6.058381619711e-25
2.3863843403434e-25
8.6065977694205e-26
2.9503908565745e-26
9.9187636949496e-27
3.3296342326134e-27
1.1239036666004e-27
3.8210192616869e-28
1.3088827709862e-28
4.5171737852236e-29
1.572841944637e-29
5.4600651179578e-30
2.0170510338422e-30
4.7347761438572e-31
5.0976429364429e-31
0
0
0
3.4666099443449e-100
3.4528704051967e-87
1.5226942392519e-73
2.9550005982339e-71
2.8618830902341e-69
1.8436131139058e-67
8.884615243988e-66
3.4155415652182e-64
1.0907297537117e-62
2.9754088485903e-61
7.0766184195262e-60
1.4903231850906e-58
2.8134615591278e-57
4.8086475042314e-56
7.5007670533992e-55
1.0750299150776e-53
1.4238957279646e-52
1.7513147888275e-51
2.0081505896074e-50
2.1539338614657e-49
2.1673664410056e-48
2.0514534385476e-47
1.8314908710592e-46
1.545654265078e-45
1.2328343682273e-44
9.2611325648205e-44
6.5382340734322e-43
4.392291257197e-42
2.9205983693853e-41
2.029016870006e-40
1.5159619939628e-39
1.1968974889454e-38
9.5806471892502e-38
7.4974283259195e-37
5.6094886239515e-36
3.9674595231246e-35
2.6394924702096e-34
1.6488841661073e-33
9.6702038750048e-33
5.3270026711022e-32
2.7586407890766e-31
1.3442467649457e-30
6.1692963031924e-30
2.6689700111884e-29
1.0893299003016e-28
4.1977556546277e-28
1.5283372744377e-27
5.2603504981329e-27
1.7122795409018e-26
5.271942584199e-26
1.5351835076239e-25
4.2265242275644e-25
1.0994177993058e-24
2.6996201064157e-24
6.2501112526779e-24
1.3623021744102e-23
2.7903665922879e-23
5.3588614303087e-23
9.6225711107941e-23
1.6095019691011e-22
2.4948532421532e-22
3.5511203262654e-22
4.5564821852284e-22
5.1467460844434e-22
5.2380786845351e-22
5.1843407793652e-22
4.9904607295911e-22
4.5808917889972e-22
3.9676971560654e-22
3.2874667090726e-22
2.7016158868818e-22
2.2948102912155e-22
2.0394143946216e-22
1.8610226094263e-22
1.7004053783072e-22
1.5218260760014e-22
1.3069741276879e-22
1.0554352566354e-22
7.8572213770729e-23
5.2925732043432e-23
3.1725427716463e-23
1.6719524055971e-23
7.7226776378683e-24
3.1613103930678e-24
1.1780087502263e-24
4.1414374668021e-25
1.4191607866722e-25
4.8403552962267e-26
1.6588808440908e-26
5.7304760998057e-27
1.9971616927139e-27
7.0227523360376e-28
2.4949509844025e-28
8.8440214428262e-29
3.3407961180345e-29
8.0101966172396e-30
8.8252840599601e-30
0
0
0
6.5313340737974e-99
1.5360176888824e-86
1.2982210126515e-72
2.5088206843008e-70
2.4188279403325e-68
1.5508137260924e-66
7.4368154905053e-65
2.844535029772e-63
9.037317774148e-62
2.4525506311851e-60
5.8027109405602e-59
1.2156826737341e-57
2.2830891689244e-56
3.8820869104692e-55
6.0249994906589e-54
8.5931320177044e-53
1.1328872080168e-51
1.3874136517035e-50
1.5848687500598e-49
1.6946043385595e-48
1.7010841760657e-47
1.6073575745817e-46
1.4334696848368e-45
1.2096542272686e-44
9.6678753759224e-44
7.2992771438271e-43
5.1839497278513e-42
3.479550678442e-41
2.275034303254e-40
1.5317915754979e-39
1.1104950340561e-38
8.6351850059841e-38
6.9156534133783e-37
5.4699109635734e-36
4.1582616766372e-35
2.9961897078489e-34
2.0337920751887e-33
1.2977949466692e-32
7.7832169391929e-32
4.3895219108818e-31
2.3301760827783e-30
1.1655743766425e-29
5.4995120318927e-29
2.4497635416914e-28
1.0309136849918e-27
4.1001360102939e-27
1.5415058919572e-26
5.478851894446e-26
1.8407901330065e-25
5.845355033381e-25
1.7537551784122e-24
4.9689100961353e-24
1.3285508354349e-23
3.3489027571041e-23
7.9486231724594e-23
1.7736715388646e-22
3.7137219372053e-22
7.279007188739e-22
1.3316823067512e-21
2.2653976895735e-21
3.5642215786722e-21
5.1374359763387e-21
6.6470702105471e-21
7.5187242202525e-21
7.6374219949576e-21
7.5424724339493e-21
7.2094387766658e-21
6.5100289563425e-21
5.4640291040177e-21