/*--------------------------------*- C++ -*----------------------------------*\
  =========                 |
  \\      /  F ield         | OpenFOAM: The Open Source CFD Toolbox
   \\    /   O peration     | Website:  https://openfoam.org
    \\  /    A nd           | Version:  7
     \\/     M anipulation  |
\*---------------------------------------------------------------------------*/
FoamFile
{
    version     2.0;
    format      ascii;
    class       volScalarField;
    location    "3";
    object      alpha.water;
}
// * * * * * * * * * * * * * * * * * * * * * * * * * * * * * * * * * * * * * //

dimensions      [0 0 0 0 0 0 0];

internalField   nonuniform List<scalar> 
6000
(
0
0
0
0
0
0
0
0
0
0
0
0
0
0
0
0
0
0
0
0
0
0
0
0
0
0
0
0
0
0
0
0
0
0
0
0
0
0
0
0
0
0
0
0
0
0
0
0
0
0
0
0
0
0
0
0
0
0
0
0
0
0
0
0
0
0
0
0
0
0
0
0
0
0
0
0
0
0
0
0
0
0
0
0
0
0
0
0
0
0
0
0
0
0
0
0
0
0
0
0
0
0
0
0
0
0
0
0
0
0
0
0
0
0
0
0
0
0
0
0
0
0
0
0
0
0
0
0
0
0
0
0
0
0
0
0
0
0
0
0
0
0
0
0
0
0
0
0
0
0
0
0
0
0
0
0
0
0
0
0
0
0
0
0
0
0
0
0
0
0
0
0
0
0
0
0
0
0
0
0
0
0
0
0
0
0
0
0
0
0
0
0
0
0
0
0
0
0
0
0
0
0
0
0
0
0
0
0
0
0
0
0
0
0
0
0
0
0
0
0
0
0
0
0
0
0
0
0
0
0
0
0
0
0
0
0
0
0
0
0
0
0
0
0
0
0
0
0
0
0
0
0
0
0
0
0
0
0
0
0
0
0
0
0
0
0
0
0
0
0
0
0
0
0
0
0
0
0
0
0
0
0
0
0
0
0
0
0
0
0
0
0
0
0
0
0
0
0
0
0
0
0
0
0
0
0
0
0
0
0
0
0
0
0
0
0
0
0
0
0
0
0
0
0
0
0
0
0
0
0
0
0
0
0
0
0
0
0
0
0
0
0
0
0
0
0
0
0
0
0
0
0
0
0
0
0
0
0
0
0
0
0
0
0
0
0
0
0
0
0
0
0
0
0
0
0
0
0
0
0
0
0
0
0
0
0
0
0
0
0
0
0
0
0
0
0
0
0
0
0
0
0
0
0
0
0
0
0
0
4.5293200126096e-75
4.3796311988085e-73
2.0980317833691e-71
6.6766928090075e-70
1.5871708180397e-68
3.0060365715084e-67
4.724428697667e-66
6.337554630963e-65
7.4070657942173e-64
7.6620005630199e-63
7.1025295175549e-62
5.9593174702484e-61
4.5635288730444e-60
3.2116796356478e-59
2.0896290743326e-58
1.2633378663522e-57
7.1286849541741e-57
3.7690299077809e-56
1.8735964830856e-55
8.7838148366307e-55
3.894442914728e-54
1.6369750988289e-53
6.5380577722323e-53
2.4863084992552e-52
9.0193131898196e-52
3.126434599709e-51
1.037215534393e-50
3.2981165540631e-50
1.0065303984564e-49
2.9518658097713e-49
8.3287982668919e-49
2.2633786709681e-48
5.9301275290407e-48
1.49939891328e-47
3.6618960109817e-47
8.6456278759828e-47
1.9748470040207e-46
4.3675928391945e-46
9.3590092258017e-46
1.9444082164522e-45
3.9191359035479e-45
7.6683125569987e-45
1.4573504341757e-44
2.6916505622682e-44
4.8337954861894e-44
8.444747621936e-44
1.4358789944784e-43
2.3772577344357e-43
3.8339615116067e-43
6.0257338166296e-43
9.2327859494671e-43
1.3796817803738e-42
2.0114259196764e-42
2.8619214951666e-42
3.9754202144551e-42
5.392840235138e-42
7.1464970075976e-42
9.2541538663759e-42
1.1713049912225e-41
1.4494739939447e-41
1.7541660535136e-41
2.0766303745091e-41
2.4053629969376e-41
2.7266879133716e-41
3.0256626592215e-41
3.2872244774328e-41
3.4974537489814e-41
3.6448130001196e-41
3.7211992269857e-41
3.7226810222041e-41
3.6498237575488e-41
3.5075706996315e-41
3.304699139024e-41
3.0529411233679e-41
2.7658828328043e-41
2.4577809201606e-41
2.1424452899593e-41
1.8322910523853e-41
1.5376450033291e-41
1.2663432349557e-41
1.0236118383162e-41
8.1219563523813e-42
6.3267191127443e-42
4.8388079083046e-42
3.6340235786997e-42
2.6802328664033e-42
1.9414987825199e-42
1.3814151663774e-42
9.6555054331839e-43
6.6302395324916e-43
1.2571469742473e-42
0
0
0
0
0
0
0
-4.1965762219075e-65
-3.8386230834381e-63
-1.7468542321717e-61
-5.2727277484078e-60
-1.1874543425358e-58
-2.12802784172e-57
-3.1607197941661e-56
-4.0013887741861e-55
-4.4068790291168e-54
-4.2884591632587e-53
-3.7326664224786e-52
-2.934530292882e-51
-2.10056343191e-50
-1.3781260679519e-49
-8.3330115142231e-49
-4.6654273793345e-48
-2.4279905167219e-47
-1.1783441659778e-46
-5.3469779080874e-46
-2.2732301572666e-45
-9.0678022997339e-45
-3.3963637626137e-44
-1.194396382556e-43
-3.9390176230209e-43
-1.214780903452e-42
-3.4839532356624e-42
-9.1952643621649e-42
-2.1873644509714e-41
-4.4713061330604e-41
-6.7721402931514e-41
-1.5529568852268e-41
4.2600106944508e-40
2.3202993416848e-39
8.8558938108131e-39
2.8796206870769e-38
8.460515464728e-38
2.305336377852e-37
5.9081568927755e-37
1.4364085984636e-36
3.3319346945817e-36
7.4041363348367e-36
1.5810073633472e-35
3.2516599609457e-35
6.4538328577645e-35
1.2381069372154e-34
2.2988334509145e-34
4.1358711342959e-34
7.2173204532994e-34
1.2227140091763e-33
2.0126333998739e-33
3.2211730593892e-33
5.0160857963492e-33
7.6047820707149e-33
1.1231293291636e-32
1.6166937389169e-32
2.2693437565077e-32
3.1078097724132e-32
4.1541887751481e-32
5.4222798432996e-32
6.9138342630251e-32
8.6152286040896e-32
1.0495125636708e-31
1.2503654263189e-31
1.4573504412083e-31
1.6623105141312e-31
1.8561764394821e-31
2.0296344387044e-31
2.1738782916708e-31
2.2813599731918e-31
2.3464484628431e-31
2.3659162523602e-31
2.3391955442066e-31
2.2683773250116e-31
2.1579609554437e-31
2.0143937937204e-31
1.8454646062242e-31
1.6596277891877e-31
1.4653366264965e-31
1.270454039991e-31
1.0817913857107e-31
9.0480362911352e-32
7.4344665454723e-32
6.0018290143904e-32
4.7610726515308e-32
3.7115727344105e-32
2.8436977594277e-32
2.1414968027906e-32
1.5852302455536e-32
1.1535514630798e-32
8.2523326279529e-33
5.804087130413e-33
4.0135442544866e-33
7.7907237466026e-33
0
0
0
0
0
0
-1.8616345209161e-63
-1.7590303631464e-61
-8.2697487693235e-60
-2.5791996667421e-58
-6.0034052460893e-57
-1.1123768248918e-55
-1.7091030127214e-54
-2.2396056855203e-53
-2.5550889516313e-52
-2.578095649997e-51
-2.329336234649e-50
-1.9035110562625e-49
-1.418588201015e-48
-9.7083025404874e-48
-6.1372489832546e-47
-3.6020291533468e-46
-1.971397685913e-45
-1.0100161140744e-44
-4.8605564273737e-44
-2.2037295178766e-43
-9.4387695899245e-43
-3.8283047444078e-42
-1.4735875025634e-41
-5.3935666135477e-41
-1.8805199581143e-40
-6.2557605384417e-40
-1.9884537269127e-39
-6.0472388208025e-39
-1.7616622119629e-38
-4.9212744172002e-38
-1.3195858846707e-37
-3.3991468144548e-37
-8.417686296541e-37
-2.0052771934086e-36
-4.5975891791908e-36
-1.0148851171293e-35
-2.1573722146826e-35
-4.4163821977878e-35
-8.7047573772e-35
-1.6511480485299e-34
-3.0114759823079e-34
-5.273868105937e-34
-8.8488601409017e-34
-1.417678278255e-33
-2.1570106953635e-33
-3.0888610990094e-33
-4.0960698611045e-33
-4.8654336230773e-33
-4.751036032161e-33
-2.5890813397198e-33
3.5324778035571e-33
1.6533810207459e-32
4.0600802579662e-32
8.139112903345e-32
1.4612442524941e-31
2.4348440298383e-31
3.8326543173161e-31
5.7571726828622e-31
8.3058043686827e-31
1.1558583921399e-30
1.5564336014973e-30
2.0326917231951e-30
2.5793578385296e-30
3.184758915956e-30
3.8306993175092e-30
4.4930701969114e-30
5.1432164253764e-30
5.7499712587518e-30
6.2821594076591e-30
6.7112844508504e-30
7.0140738307607e-30
7.1745634438379e-30
7.1854635604048e-30
7.0486480264954e-30
6.7747313553392e-30
6.381821712286e-30
5.8936411894919e-30
5.33727246035e-30
4.7408149434733e-30
4.1312145774838e-30
3.532477268661e-30
2.9644000824685e-30
2.4418712246098e-30
1.9747135392666e-30
1.5679869094259e-30
1.2226281620984e-30
9.3629368757906e-31
7.0427689180032e-31
5.2039421296638e-31
3.7776317377751e-31
2.6942761117295e-31
1.8881394601831e-31
1.3002501665347e-31
2.4872584481157e-31
0
0
0
0
0
6.1802897103783e-65
-8.1173483561022e-62
-7.8661980415141e-60
-3.7050316819975e-58
-1.151371633573e-56
-2.6649899269079e-55
-4.9062762400305e-54
-7.4871663816817e-53
-9.7436793540034e-52
-1.1040071741125e-50
-1.1064401482703e-49
-9.9310876332817e-49
-8.063912692338e-48
-5.9727742465906e-47
-4.0635663304043e-46
-2.5545086294265e-45
-1.4913710425897e-44
-8.1220000760082e-44
-4.1421269989536e-43
-1.9849752882936e-42
-8.9656496703017e-42
-3.827257867307e-41
-1.5478828752314e-40
-5.9442233316974e-40
-2.1718586194043e-39
-7.5638294663601e-39
-2.5150739213249e-38
-7.99690938981e-38
-2.4348063513487e-37
-7.1078169388455e-37
-1.9918249112549e-36
-5.3639088272047e-36
-1.3895073982896e-35
-3.4656751019497e-35
-8.3296530375807e-35
-1.9306806201808e-34
-4.3185660237963e-34
-9.3279156437092e-34
-1.9466366112701e-33
-3.9268817097469e-33
-7.6603255867492e-33
-1.4455082494326e-32
-2.6391545255208e-32
-4.6626246903278e-32
-7.9710032832586e-32
-1.3183802761565e-31
-2.1089051651101e-31
-3.2605794494648e-31
-4.8678470313721e-31
-7.0073877314571e-31
-9.7054759464756e-31
-1.2891648241337e-30
-1.6339685030173e-30
-1.9600370975205e-30
-2.1934714171579e-30
-2.2260543234265e-30
-1.9128589544457e-30
-1.0745057046489e-30
4.9448291659371e-31
3.0104341653064e-30
6.6786236591444e-30
1.1666254322705e-29
1.807318076827e-29
2.5904329920968e-29
3.5048321570333e-29
4.5266594036757e-29
5.6196306569342e-29
6.7368512902757e-29
7.8240846060786e-29
8.8241619420442e-29
9.6820278008379e-29
1.0349792132801e-28
1.0791141784291e-28
1.0984549442934e-28
1.0924895220831e-28
1.06233498972e-28
1.0105616547853e-28
9.4088452590469e-29
8.5776889487044e-29
7.6600370899448e-29
6.7029459268339e-29
5.7491921230836e-29
4.8347364766066e-29
3.9872250216337e-29
3.2255046573797e-29
2.560010995225e-29
1.9938097104669e-29
1.5240419357015e-29
1.1435336592244e-29
8.4236792182329e-30
6.0927393919029e-30
4.3274687133303e-30
3.0186616766455e-30
2.0682311938062e-30
3.8921704338716e-30
0
0
0
0
0
2.9288541882223e-63
-1.7494334105999e-60
-1.7538253320847e-58
-8.3130308115755e-57
-2.5834120406656e-55
-5.9655152363234e-54
-1.094435506258e-52
-1.6633523105533e-51
-2.1551429011291e-50
-2.4307093868998e-49
-2.4246978028214e-48
-2.1661109579422e-47
-1.7505996053456e-46
-1.2905941678818e-45
-8.7401434955663e-45
-5.4695157634058e-44
-3.1790447385296e-43
-1.7238052102346e-42
-8.7541299221128e-42
-4.1779597510269e-41
-1.8796229701876e-40
-7.9932242942157e-40
-3.2209842109898e-39
-1.2326466794208e-38
-4.4890156714998e-38
-1.5585738269102e-37
-5.1677334728816e-37
-1.638857949913e-36
-4.9781601915133e-36
-1.4502807595436e-35
-4.0571069141659e-35
-1.0910575465741e-34
-2.8235469420879e-34
-7.0384065822339e-34
-1.6914940143787e-33
-3.9222848356495e-33
-8.7823094073677e-33
-1.9001223481566e-32
-3.9749779591e-32
-8.0449004614796e-32
-1.5760406371962e-31
-2.9900482265562e-31
-5.4957982230736e-31
-9.7898505930029e-31
-1.6905809264855e-30
-2.8307424170208e-30
-4.596451760615e-30
-7.2379243732459e-30
-1.1051835465038e-29
-1.6359911219083e-29
-2.3467711051541e-29
-3.2599873709307e-29
-4.3811326896082e-29
-5.6879050426529e-29
-7.1185519148119e-29
-8.5611909117331e-29
-9.8464940118231e-29
-1.074639394507e-28
-1.0981254922188e-28
-1.0237132979842e-28
-8.1933393458848e-29
-4.5586708022738e-29
8.873101070351e-30
8.2532668500598e-29
1.7501676968207e-28
2.8427303083097e-28
4.0653604339272e-28
5.3649823001854e-28
6.6768416509696e-28
7.9299244809156e-28
9.0534091332644e-28
9.9833257784861e-28
1.0668550110637e-27
1.1075357163588e-27
1.1189986395227e-27
1.101897595672e-27
1.0587353698015e-27
9.935065520059e-28
9.1122303969484e-28
8.1739084110737e-28
7.1750499102794e-28
6.1661784289348e-28
5.1901803839346e-28
4.2803701311063e-28
3.4598067756419e-28
2.7416872303448e-28
2.1305439609805e-28
1.6239384054203e-28
1.2143544858003e-28
8.9104661408938e-29
6.416663741995e-29
4.5356609081347e-29
3.1474381045194e-29
2.1444552803544e-29
3.967657385893e-29
0
0
0
0
6.0394812908831e-75
6.9197792448099e-62
-2.4802503549865e-59
-2.5913486805704e-57
-1.2386416984765e-55
-3.8542954234706e-54
-8.8880822358567e-53
-1.6263285331778e-51
-2.4635497902373e-50
-3.1800724161583e-49
-3.5724895258175e-48
-3.5490051144491e-47
-3.1571924214044e-46
-2.5407176961641e-45
-1.865085729813e-44
-1.2576694605534e-43
-7.8368561526112e-43
-4.5357201277059e-42
-2.449121558554e-41
-1.2385891938001e-40
-5.8869928951024e-40
-2.637792895089e-39
-1.1172776651809e-38
-4.4846446436247e-38
-1.7096697270232e-37
-6.202910764668e-37
-2.1457649583675e-36
-7.0893747098973e-36
-2.2405172851071e-35
-6.7830475874022e-35
-1.9697498672492e-34
-5.4933471730802e-34
-1.4729690557326e-33
-3.8013332667692e-33
-9.4511889472494e-33
-2.2658826733614e-32
-5.2426784111938e-32
-1.1715804039837e-31
-2.5305081324308e-31
-5.2862836854159e-31
-1.0687305193334e-30
-2.092219062887e-30
-3.9681865915711e-30
-7.295019263625e-30
-1.3004450310432e-29
-2.2487859761894e-29
-3.7733800637225e-29
-6.1453910113221e-29
-9.7159917369724e-29
-1.4913983745624e-28
-2.222708131307e-28
-3.2160501058723e-28
-4.516794605297e-28
-6.1553540188299e-28
-8.1348865799181e-28
-1.0417653969993e-27
-1.2911960839032e-27
-1.546227068731e-27
-1.784543095652e-27
-1.9775753591e-27
-2.0920861577751e-27
-2.0928732213789e-27
-1.946441243839e-27
-1.6252776983783e-27
-1.1121879559588e-27
-4.0403591612178e-28
4.8576404275841e-28
1.526534731222e-27
2.6716983899985e-27
3.8621969047357e-27
5.0316228980581e-27
6.1124291341259e-27
7.0423999953068e-27
7.7705233428366e-27
8.2615016943861e-27
8.498366292699e-27
8.482960187522e-27
8.2343779056647e-27
7.7857311854235e-27
7.1798069255069e-27
6.4642702339639e-27
5.6870411357836e-27
4.8923576989457e-27
4.1178644301572e-27
3.3928711155357e-27
2.7377488226436e-27
2.1642920720658e-27
1.6767923771165e-27
1.2735394125764e-27
9.4848342092053e-28
6.9284184585967e-28
4.9649871543457e-28
3.4911275582886e-28
2.4090910029949e-28
1.6317374680281e-28
2.9673747155417e-28
0
0
0
0
2.9351522150915e-73
1.0867055340015e-60
-2.5959759965356e-58
-2.8516106008718e-56
-1.3769987447224e-54
-4.2940851615702e-53
-9.8944123565402e-52
-1.8065037957378e-50
-2.7284047664654e-49
-3.509972792626e-48
-3.9285543908087e-47
-3.8876115926229e-46
-3.4445991895979e-45
-2.7607098475544e-44
-2.0182169701444e-43
-1.3552746786281e-42
-8.4098478119131e-42
-4.8470405722234e-41
-2.6063181165732e-40
-1.3126126758912e-39
-6.2130239668387e-39
-2.7724289460104e-38
-1.1695069142802e-37
-4.6752509814018e-37
-1.7751662326916e-36
-6.4148767829143e-36
-2.2103362927096e-35
-7.2742198848174e-35
-2.2900737338042e-34
-6.906702484643e-34
-1.9981383920572e-33
-5.5519567759894e-33
-1.4832879876367e-32
-3.8143590799361e-32
-9.450609997898e-32
-2.2580631486312e-31
-5.2073731213473e-31
-1.1599802936168e-30
-2.4977612577949e-30
-5.202550152753e-30
-1.0488706830298e-29
-2.047965947059e-29
-3.8748379500423e-29
-7.107711406086e-29
-1.2645832482399e-28
-2.1831460312769e-28
-3.6584067994236e-28
-5.9526452019571e-28
-9.4069554744697e-28
-1.4440984318109e-27
-2.1538375770629e-27
-3.1212290949441e-27
-4.3946646994094e-27
-6.0111738646502e-27
-7.9857736424056e-27
-1.0299578174954e-26
-1.2888303522275e-26
-1.5633358389337e-26
-1.8357981907417e-26
-2.083071526535e-26
-2.2777779583246e-26
-2.3904693463077e-26
-2.392585082697e-26
-2.2599070141005e-26
-1.9760676977754e-26
-1.5355852262144e-26
-9.4590385881138e-27
-2.280247846343e-27
5.8449570448742e-27
1.4481543202091e-26
2.3134299924866e-26
3.1295308730152e-26
3.849321599839e-26
4.4337689638e-26
4.8553325578888e-26
5.0999079878608e-26
5.1671658696216e-26
5.0693738051899e-26
4.8289966084854e-26
4.4755092915925e-26
4.0419116569428e-26
3.5614047923488e-26
3.0645954986084e-26
2.5774612115204e-26
2.1201643410568e-26
1.7066765333111e-26
1.3450777257063e-26
1.0383400351378e-26
7.8539160267733e-27
5.8227300158982e-27
4.2323760717016e-27
3.0169573192261e-27
2.1095033107002e-27
1.4471265390504e-27
9.7415668149254e-28
1.7408534483873e-27
0
0
0
0
7.0846154032149e-72
1.2761108609651e-59
-2.1323645933597e-57
-2.4910329631668e-55
-1.2175176649472e-53
-3.8079457527744e-52
-8.7712991109777e-51
-1.5984459780732e-49
-2.4076237936304e-48
-3.0873527402934e-47
-3.4433341109097e-46
-3.3946978230283e-45
-2.9961678025978e-44
-2.3917405133896e-43
-1.7413934856486e-42
-1.1645854980284e-41
-7.1966952903737e-41
-4.1306025043595e-40
-2.211823336688e-39
-1.1092849026781e-38
-5.2286833274246e-38
-2.3234505690134e-37
-9.760265868452e-37
-3.8855522438626e-36
-1.4691960785035e-35
-5.2872105572923e-35
-1.8142598453503e-34
-5.9461564556488e-34
-1.8642954421769e-33
-5.5996219577584e-33
-1.6134085981435e-32
-4.4648292166371e-32
-1.1880494126254e-31
-3.0429336710447e-31
-7.5094113007594e-31
-1.7871970519924e-30
-4.1054691006743e-30
-9.1100871876418e-30
-1.9542220734285e-29
-4.0552464626766e-29
-8.1457703210744e-29
-1.5848147210538e-28
-2.9881137583946e-28
-5.4627388702353e-28
-9.6877437001227e-28
-1.6673231652034e-27
-2.7859258234424e-27
-4.520856042148e-27
-7.1269227168629e-27
-1.0917451846103e-26
-1.6254094502918e-26
-2.3522581912061e-26
-3.309152073701e-26
-4.5253496048687e-26
-6.0151136851977e-26
-7.769507186759e-26
-9.7485150050534e-26
-1.1874988536829e-25
-1.4032063251372e-25
-1.6065548247858e-25
-1.7792274035264e-25
-1.9014533527154e-25
-1.9539673471554e-25
-1.9202781218612e-25
-1.7889502228503e-25
-1.5555546383326e-25
-1.2239557832519e-25
-8.0667790324141e-26
-3.2422401042691e-26
1.9661738211096e-26
7.2527888135078e-26
1.2304024870985e-25
1.6829018501926e-25
2.0586859663519e-25
2.3406971185362e-25
2.520036320789e-25
2.5960995924162e-25
2.5757986091719e-25
2.4720627563253e-25
2.3018975027887e-25
2.084298516761e-25
1.8382954259518e-25
1.5813358048221e-25
1.3281360025339e-25
1.0900386101902e-25
8.7484152443237e-26
6.8701026378844e-26
5.2815705974867e-26
3.9766565244002e-26
2.9335439293121e-26
2.120951852952e-26
1.5033501668128e-26
1.0449463993436e-26
7.1241642287823e-27
4.7650915528453e-27
8.365680562747e-27
0
0
0
0
1.1348262421724e-70
1.1951657568708e-58
-1.4247726771887e-56
-1.7979894471939e-54
-8.914439765804e-53
-2.7986303423675e-51
-6.4470664812408e-50
-1.1730105861054e-48
-1.7623755766797e-47
-2.2530077720717e-46
-2.5042008336589e-45
-2.4598129542448e-44
-2.1627532007275e-43
-1.7196666060793e-42
-1.2470387926982e-41
-8.3057817556209e-41
-5.1115018605898e-40
-2.9215967448566e-39
-1.5578928847891e-38
-7.7804019866358e-38
-3.6518797630715e-37
-1.6159115577227e-36
-6.7592988720139e-36
-2.6794469382123e-35
-1.0088384971221e-34
-3.615059242427e-34
-1.2351877334904e-33
-4.030997043025e-33
-1.2584379454443e-32
-3.7637021280979e-32
-1.0797899749879e-31
-2.9753465214018e-31
-7.8832442080207e-31
-2.010488111107e-30
-4.9403214293347e-30
-1.1707522221349e-29
-2.6779532469613e-29
-5.9172044176478e-29
-1.2639505732623e-28
-2.6118388413492e-28
-5.2245391553153e-28
-1.0122743981667e-27
-1.9008247673458e-27
-3.4610397608116e-27
-6.113662927839e-27
-1.0481399978525e-26
-1.7447581598786e-26
-2.8210252200941e-26
-4.4317362829646e-26
-6.7663780149218e-26
-1.0042770319501e-25
-1.4492474606899e-25
-2.0336427820698e-25
-2.7750580302478e-25
-3.6823299199984e-25
-4.7508730502174e-25
-5.958276263101e-25
-7.2610106508915e-25
-8.5931651700908e-25
-9.8680140719889e-25
-1.0982908682857e-24
-1.1827494992316e-24
-1.2294657841628e-24
-1.2292993317545e-24
-1.1759144336615e-24
-1.0668121003737e-24
-9.0398453217434e-25
-6.9406203559149e-25
-4.4789618945313e-25
-1.7961146242813e-25
9.4756501710383e-26
3.5885105537945e-25
5.9759400814889e-25
7.9857937625353e-25
9.5308698389078e-25
1.0566090252494e-24
1.1088629483646e-24
1.113341318145e-24
1.0765100989173e-24
1.0068022634619e-24
9.1356099176165e-25
8.0606892188443e-25
6.9276416161626e-25
5.8069933638004e-25
4.75255942363e-25
3.800898638325e-25
2.9725934503952e-25
2.2747514142658e-25
1.7041260859285e-25
1.2503406716977e-25
8.9883214430017e-26
6.3328168470385e-26
4.3743251000483e-26
2.9630201294197e-26
1.9686533397066e-26
3.3942959709708e-26
0
0
0
0
1.3575123900404e-69
9.2989915496889e-58
-7.9039254824924e-56
-1.101948860109e-53
-5.5568713835346e-52
-1.7527433881596e-50
-4.039975188444e-49
-7.3408206642935e-48
-1.1003415153e-46
-1.4025412373755e-45
-1.5537385188308e-44
-1.5207345573944e-43
-1.3320531498914e-42
-1.055030283996e-41
-7.6201663664244e-41
-5.0547178777523e-40
-3.0979346887851e-39
-1.7633234540453e-38
-9.363143986267e-38
-4.6563505767808e-37
-2.1762495817508e-36
-9.58845974303e-36
-3.9935885804079e-35
-1.5762650729027e-34
-5.9090895617549e-34
-2.1082487099728e-33
-7.1719905065739e-33
-2.3303032225812e-32
-7.2429914664214e-32
-2.1566552339532e-31
-6.1599521687297e-31
-1.6898247836392e-30
-4.4572709648192e-30
-1.1316701241773e-29
-2.7683617455351e-29
-6.5309711032088e-29
-1.4871603495005e-28
-3.2712339198545e-28
-6.9560881354614e-28
-1.430944854698e-27
-2.8495074425638e-27
-5.4963151925333e-27
-1.0274868100197e-26
-1.8625768188155e-26
-3.275662148284e-26
-5.5914963418157e-26
-9.2679043329635e-26
-1.492187457152e-25
-2.3345338912314e-25
-3.5501000700426e-25
-5.2487294151712e-25
-7.546225973233e-25
-1.0551966448249e-24
-1.4351755378827e-24
-1.8986933760576e-24
-2.4431927023127e-24
-3.0573556839036e-24
-3.7196250685416e-24
-4.397746016227e-24
-5.0496911850772e-24
-5.6261687183262e-24
-6.0746701629577e-24
-6.3447298722081e-24
-6.3937939140784e-24
-6.192896438196e-24
-5.731268320009e-24
-5.0190875590045e-24
-4.0878214020886e-24
-2.9879692907597e-24
-1.7844276437339e-24
-5.5008204205812e-25
6.4148639492362e-25
1.7231699067756e-24
2.6404215891147e-24
3.3555188646187e-24
3.8495852095967e-24
4.1223199074121e-24
4.189724864077e-24
4.0803707135729e-24
3.8308774893321e-24
3.4812917957437e-24
3.0709414740668e-24
2.6351761419769e-24
2.2032004169644e-24
1.7970157495581e-24
1.4313359093481e-24
1.1142457901614e-24
8.4833523907569e-25
6.3205037298013e-25
4.6104944284581e-25
3.2941215890849e-25
2.3061579330421e-25
1.5824764891984e-25
1.0646566635986e-25
7.0245354260214e-26
1.1889998935543e-25
0
0
0
0
1.293306748253e-68
6.1818776768464e-57
-3.6686458554195e-55
-5.8477279964683e-53
-3.0090732576288e-51
-9.5459869377083e-50
-2.20265931229e-48
-3.9982330967113e-47
-5.9802634371085e-46
-7.60132611021e-45
-8.3935951632802e-44
-8.1864424778743e-43
-7.1440968316159e-42
-5.6365174015054e-41
-4.0549244147546e-40
-2.6788657865244e-39
-1.6350580816637e-38
-9.2677980135646e-38
-4.9003906213479e-37
-2.4266254714418e-36
-1.129274676714e-35
-4.9540538934005e-35
-2.0543970141159e-34
-8.0732489020123e-34
-3.0131932819953e-33
-1.0702990549313e-32
-3.6248461937437e-32
-1.1725157067296e-31
-3.6280259861326e-31
-1.0753979454273e-30
-3.0576787196547e-30
-8.3497281125604e-30
-2.1923313142505e-29
-5.5405664582906e-29
-1.349104064204e-28
-3.1679650672909e-28
-7.1801396931948e-28
-1.5720000430715e-27
-3.3271040094295e-27
-6.8120896968421e-27
-1.3501461162253e-26
-2.592001671892e-26
-4.8227395796557e-26
-8.7014031597231e-26
-1.5231340649533e-25
-2.5878587372802e-25
-4.2695369062723e-25
-6.8426885673058e-25
-1.0656880845257e-24
-1.6133374456744e-24
-2.3748078449223e-24
-3.3996709791931e-24
-4.7339776452908e-24
-6.4128107546933e-24
-8.4513961735159e-24
-1.0835766425107e-23
-1.3514426603854e-23
-1.6392764643534e-23
-1.9331957585976e-23
-2.2153767111547e-23
-2.4651877618944e-23
-2.6609387062667e-23
-2.7820884579922e-23
-2.8116474221831e-23
-2.7384380038888e-23
-2.5588596559992e-23
-2.2778528721809e-23
-1.9088656019257e-23
-1.4727776302931e-23
-9.9590494815098e-24
-5.0735434850705e-24
-3.6099210729545e-25
3.9181827936691e-24
7.555899296726e-24
1.0411781509497e-23
1.2419509699865e-23
1.3584260998467e-23
1.397263426899e-23
1.3697355223046e-23
1.2899466687624e-23
1.1730626008745e-23
1.0337652386913e-23
8.8507451835272e-24
7.3759998589144e-24
5.9921299556043e-24
4.7507638398142e-24
3.6793701294969e-24
2.7857706016065e-24
2.0632810923733e-24
1.495717353482e-24
1.0617496953979e-24
7.3833371923685e-25
5.0314795258387e-25
3.3611469356526e-25
2.2016544859446e-25
3.6570946376626e-25
0
0
0
0
1.0221870563632e-67
3.5843423824849e-56
-1.4127068600086e-54
-2.725909882829e-52
-1.4371687796642e-50
-4.5913816928203e-49
-1.0611819450891e-47
-1.9249015678835e-46
-2.8735584312941e-45
-3.6427586505517e-44
-4.0098436335613e-43
-3.8974086293197e-42
-3.3886962258472e-41
-2.663360895591e-40
-1.9084575448853e-39
-1.2557118951604e-38
-7.6327101010962e-38
-4.3082605366283e-37
-2.268368372221e-36
-1.1184690465025e-35
-5.1825356583167e-35
-2.2636524652979e-34
-9.3459989437991e-34
-3.6565277506662e-33
-1.3586704512208e-32
-4.8044835223681e-32
-1.6198457105896e-31
-5.2159506700167e-31
-1.6065871391423e-30
-4.7403523832059e-30
-1.3416193828187e-29
-3.6466533404113e-29
-9.530194611916e-29
-2.3972434444458e-28
-5.8097175443571e-28
-1.3577852541196e-27
-3.0627721736757e-27
-6.6735347658895e-27
-1.4056669627817e-26
-2.8641843905875e-26
-5.6493529629959e-26
-1.0793054256868e-25
-1.9984307198669e-25
-3.5881226582886e-25
-6.250244568164e-25
-1.0567700471244e-24
-1.7350189568792e-24
-2.7671898323741e-24
-4.2888361555942e-24
-6.4616588445786e-24
-9.4661565407409e-24
-1.3487486374335e-23
-1.8693843299074e-23
-2.5207906643033e-23
-3.3073550827934e-23
-4.2221822383752e-23
-5.2441758885896e-23
-6.3362506046339e-23
-7.4452951976753e-23
-8.5043484491248e-23
-9.437151266831e-23
-1.016484452804e-22
-1.0614157085039e-22
-1.0726061750117e-22
-1.0463656498719e-22
-9.8180190281026e-23
-8.8110089790769e-23
-7.4944260015257e-23
-5.9454975301982e-23
-4.2592592125673e-23
-2.538887148992e-23
-8.8534750669026e-24
6.1220977733198e-24
1.8840729232986e-23
2.8847506545131e-23
3.5945572419601e-23
4.0181508266957e-23
4.1806012302865e-23
4.1218402568207e-23
3.8904471561068e-23
3.5376545692791e-23
3.1122662372873e-23
2.6569140072246e-23
2.2058071267649e-23
1.783890034027e-23
1.40715660631e-23
1.0837801601936e-23
8.1570337694819e-24
6.0037327046165e-24
4.323808372038e-24
3.0485134717709e-24
2.1051215521128e-24
1.4242959793314e-24
9.445046014501e-25
6.1407129687124e-25
1.000701970041e-24
0
0
0
0
6.8948001942844e-67
1.8412544283326e-55
-4.3264550191492e-54
-1.1281338298479e-51
-6.126010748782e-50
-1.9738642389151e-48
-4.5727610144132e-47
-8.2919685318055e-46
-1.2357453496794e-44
-1.5625977348714e-43
-1.7148587064675e-42
-1.6611546742544e-41
-1.4391082775969e-40
-1.1267810066538e-39
-8.0423261097487e-39
-5.270271772059e-38
-3.1902816806765e-37
-1.793203578745e-36
-9.4014229765067e-36
-4.615672053072e-35
-2.1294405016372e-34
-9.2603727557724e-34
-3.8064902331191e-33
-1.4826342655287e-32
-5.4844387503074e-32
-1.9306565903882e-31
-6.4797770592443e-31
-2.0769983225221e-30
-6.3681256314067e-30
-1.8702997154308e-29
-5.2688015140866e-29
-1.4254358729025e-28
-3.707784245363e-28
-9.2826742759404e-28
-2.2389947856407e-27
-5.2078089793866e-27
-1.169104554144e-26
-2.5351176336399e-26
-5.3139447521944e-26
-1.0774991905929e-25
-2.1148774198456e-25
-4.0205987225433e-25
-7.4077285537397e-25
-1.3234362762389e-24
-2.2938415696113e-24
-3.8589514050186e-24
-6.3038863756119e-24
-1.0003521551946e-23
-1.5426225511536e-23
-2.3124348527632e-23
-3.3705956748243e-23
-4.7783484443517e-23
-6.5897765262096e-23
-8.8420323077228e-23
-1.1544241630982e-22
-1.466651928e-22
-1.8131006639319e-22
-2.1807055248729e-22
-2.5512500523579e-22
-2.9022334601829e-22
-3.2085032089767e-22
-3.4445455941278e-22
-3.5871916694526e-22
-3.6183868531356e-22
-3.5276171445017e-22
-3.3136009543878e-22
-2.9849464133207e-22
-2.5596263189377e-22
-2.0633088493635e-22
-1.5267656736385e-22
-9.8272397929097e-23
-4.6260742517411e-23
6.3900784031738e-25
4.0353068397146e-23
7.1582528483689e-23
9.3831947348256e-23
1.0734556184875e-22
1.1297174528025e-22
1.1198368822858e-22
1.0588601719237e-22
9.6233822569153e-23
8.4483779698948e-23
7.1888560508544e-23
5.9437342676729e-23
4.7838319938827e-23
3.7534502524648e-23
2.8741962514849e-23
2.1499721844167e-23
1.5722091685581e-23
1.1246737847407e-23
7.8744164014891e-24
5.3987119363161e-24
3.6259368687922e-24
2.3865227296109e-24
1.5398034760319e-24
2.4614340792674e-24
0
0
0
0
4.0509460045542e-66
8.483950696003e-55
-8.9184085313114e-54
-4.1770481617977e-51
-2.3522323806387e-49
-7.6581044686075e-48
-1.779689039162e-46
-3.2275374770361e-45
-4.8030475318786e-44
-6.0592365765302e-43
-6.6303186258901e-42
-6.4015486079101e-41
-5.5261163567903e-40
-4.3105402250463e-39
-3.0646049368467e-38
-2.0002115372182e-37
-1.2058180370853e-36
-6.7493096217898e-36
-3.5234900670489e-35
-1.7224275287986e-34
-7.911851129395e-34
-3.4255486817651e-33
-1.401844706174e-32
-5.4358654547856e-32
-2.0017670170392e-31
-7.0148955683357e-31
-2.3436891814256e-30
-7.4780676737153e-30
-2.2822757177955e-29
-6.672078753699e-29
-1.8708787042991e-28
-5.0379713360908e-28
-1.3043283641249e-27
-3.2501252531908e-27
-7.8023289217946e-27
-1.8061742505642e-26
-4.0353396581855e-26
-8.7083349026326e-26
-1.8165685137907e-25
-3.6655255589008e-25
-7.159376476753e-25
-1.3543688469151e-24
-2.4829758131061e-24
-4.4138363464979e-24
-7.6117881630234e-24
-1.2740515336702e-23
-2.0706425456277e-23
-3.2689941624866e-23
-5.0150128505925e-23
-7.4786219724095e-23
-1.0844003719279e-22
-1.529278402511e-22
-2.0979961695492e-22
-2.8003797946605e-22
-3.6372596615415e-22
-4.5973001329729e-22
-5.6545688709283e-22
-6.7674701754849e-22
-7.8795803251189e-22
-8.9227020365306e-22
-9.8221197002021e-22
-1.0503639424167e-21
-1.0901615247964e-21
-1.0966880720721e-21
-1.0673396486336e-21
-1.002253038709e-21
-9.0442023460913e-22
-7.7946000690562e-22
-6.3507144746655e-22
-4.8024496837924e-22
-3.2434327614876e-22
-1.7618145515186e-22
-4.3229085517357e-23
6.8969310495138e-23
1.5709986763626e-22
2.201014243995e-22
2.5893691507526e-22
2.7617877610806e-22
2.7548989950274e-22
2.6108291027339e-22
2.3722855029819e-22
2.0786318814441e-22
1.7632121590627e-22
1.4519519186983e-22
1.1630858837679e-22
9.0774734942331e-23
6.9111164041684e-23
5.13799473762e-23
3.7329909102352e-23
2.6523811116495e-23
1.8440984237949e-23
1.2552204407272e-23
8.3682424506515e-24
5.4663149131157e-24
3.4998547109643e-24
5.4880721841686e-24
0
0
0
0
2.1062246835102e-65
3.5415673700552e-54
9.4334849422799e-55
-1.3906305673365e-50
-8.1963005939892e-49
-2.7023610797563e-47
-6.3058036899534e-46
-1.1442856715286e-44
-1.7009289304678e-43
-2.1411928392522e-42
-2.3365012548506e-41
-2.248673295461e-40
-1.9343791865244e-39
-1.5032767261053e-38
-1.0646232388408e-37
-6.9207982453899e-37
-4.1550561152828e-36
-2.3159743939243e-35
-1.2039195665547e-34
-5.8599106312718e-34
-2.6799900133955e-33
-1.1552413978799e-32
-4.7066840626654e-32
-1.816952071102e-31
-6.6609588111839e-31
-2.323716354875e-30
-7.728442800531e-30
-2.4547300393222e-29
-7.4575771387282e-29
-2.1701984016254e-28
-6.0573967602067e-28
-1.6236468831676e-27
-4.1841898498332e-27
-1.0377806616272e-26
-2.4797189153516e-26
-5.7134874243535e-26
-1.2705000869256e-25
-2.7287952148659e-25
-5.665205450232e-25
-1.1376628419009e-24
-2.2113112370527e-24
-4.1628568230391e-24
-7.5943052655628e-24
-1.3432997138836e-23
-2.3049620873121e-23
-3.8385154187506e-23
-6.206681283571e-23
-9.7482325601435e-23
-1.4877224294521e-22
-2.2069494268884e-22
-3.1832246619259e-22