/*--------------------------------*- C++ -*----------------------------------*\
  =========                 |
  \\      /  F ield         | OpenFOAM: The Open Source CFD Toolbox
   \\    /   O peration     | Website:  https://openfoam.org
    \\  /    A nd           | Version:  7
     \\/     M anipulation  |
\*---------------------------------------------------------------------------*/
FoamFile
{
    version     2.0;
    format      ascii;
    class       volScalarField;
    location    "1.4";
    object      alpha.water;
}
// * * * * * * * * * * * * * * * * * * * * * * * * * * * * * * * * * * * * * //

dimensions      [0 0 0 0 0 0 0];

internalField   nonuniform List<scalar> 
6000
(
0
0
0
0
0
0
0
0
0
0
0
0
0
0
0
0
0
0
0
0
0
0
0
0
0
0
0
0
0
0
0
0
0
0
0
0
0
0
0
0
0
0
0
0
0
0
0
0
0
0
0
0
0
0
0
0
0
0
0
0
0
0
0
0
0
0
0
0
0
0
0
0
0
0
0
0
0
0
0
0
0
0
0
0
0
0
0
0
0
0
0
0
0
0
0
0
0
0
0
0
0
0
0
0
0
0
0
0
0
0
0
0
0
0
0
0
0
0
0
0
0
0
0
0
0
0
0
0
0
0
0
0
0
0
0
0
0
0
0
0
0
0
0
0
0
0
0
0
0
0
0
0
0
0
0
0
0
0
0
0
0
0
0
0
0
0
0
0
0
0
0
0
0
0
0
0
0
0
0
0
0
0
0
0
0
0
0
0
0
0
0
0
0
0
0
0
0
0
0
0
0
0
0
0
0
0
0
0
0
0
0
0
0
0
0
0
0
0
0
0
0
0
0
0
0
0
0
0
0
0
0
0
0
0
0
0
0
0
0
0
0
0
0
0
0
0
0
0
0
0
0
0
0
0
0
0
0
0
0
0
0
0
0
0
0
0
0
0
0
0
0
0
0
0
0
0
0
0
0
0
0
0
0
0
0
0
0
0
0
0
0
0
0
0
0
0
0
0
0
0
0
0
0
0
0
0
0
0
0
0
0
0
0
0
0
0
0
-8.5969804370073e-73
-1.0941185437834e-72
2.1080652925145e-60
3.8818200057908e-56
3.8837257405212e-55
6.7298146057295e-54
3.3819801655793e-53
1.5502537353782e-52
6.8470230887688e-52
2.8586237793454e-51
1.0205596616593e-50
9.7546400051284e-50
3.0412222616688e-47
3.1157824666226e-46
8.4613048263615e-46
6.3479055956234e-45
2.6255873935258e-44
6.9185362020455e-44
1.5665639238636e-43
1.9564619834483e-43
1.9084916912617e-43
1.9684802785327e-43
1.8516168177367e-43
2.0944975027797e-43
2.4511911319766e-43
3.2332150704129e-43
3.1369712849507e-43
2.3291751614409e-43
1.0741061756067e-43
2.9410075447731e-44
4.7458832903439e-45
6.7934957206504e-46
1.0684529917057e-46
8.3589891091471e-48
1.9190811599676e-48
2.5930481168276e-49
8.7911425413167e-50
9.2496918084492e-51
1.6411719458062e-51
5.7425787736861e-52
6.3176450768662e-53
2.0529967423503e-53
2.3340388603392e-54
4.1757969692521e-55
1.4368847082979e-55
1.6199553174394e-56
4.9442722310317e-57
5.9574698599242e-58
1.0728853260931e-58
3.6567270088916e-59
4.1673412977754e-60
1.2609236345463e-60
1.5340927600662e-61
2.7488188393873e-62
1.1605164430333e-62
1.1212418004474e-63
3.2721254225872e-64
4.0125892891044e-65
7.2469388416581e-66
2.2774200583528e-66
2.8051126462065e-67
3.3357075478999e-68
9.174054271492e-69
1.7862981657553e-69
3.3355347128183e-70
1.3830914188189e-70
3.5168919051643e-71
4.2560294461187e-72
9.6352761747108e-73
1.0455243890974e-73
1.8375302177543e-74
7.6006889052478e-75
1.666644628491e-75
1.5239087369508e-76
2.6132471509748e-77
1.0698865402899e-77
2.7145013245334e-78
5.9177291130342e-79
1.0805810452781e-79
9.0761708193503e-81
3.4351943217087e-81
7.6079535625219e-82
2.9992183558647e-82
0
0
0
0
0
0
0
0
0
8.2696127052644e-41
3.1407735547848e-40
1.8254154934136e-40
5.4950706070735e-39
-1.8377255948576e-46
0
-8.1566305849981e-57
0
5.9463073230371e-39
-1.7977612160797e-54
0
2.6509049401244e-56
2.8701143870962e-55
6.5553407546726e-41
3.7578663670877e-53
1.1941332665908e-52
5.2928363121318e-52
2.2172743388144e-51
8.2555536292113e-51
7.2240846754942e-50
2.0521159149101e-47
1.5543417465967e-42
9.3369074860407e-46
4.5268239247697e-45
4.902054592792e-42
7.4912082022149e-44
9.134996101976e-40
4.2159457252016e-43
2.0366444754767e-43
4.8372690235872e-42
1.9704888291569e-43
2.1206413017584e-43
7.6806511566812e-43
2.0610769707922e-43
1.9072113106771e-43
2.0965384631886e-43
8.672366473316e-44
2.0317586162471e-44
7.0149773179723e-45
1.256337029207e-44
7.8869225540726e-46
4.8568933450165e-47
9.8411134656301e-47
1.7411231484699e-48
2.2595659908955e-47
6.5232447669265e-50
1.2284185607516e-50
2.2083005516624e-49
4.6151545085726e-52
1.5696541418932e-50
1.7177426249735e-53
3.233385831102e-54
2.3071175007311e-52
1.2094074563312e-55
1.8684834089231e-53
4.4686246552942e-57
8.4127269266887e-58
2.8214071577491e-55
3.1392342421038e-59
2.2164200813892e-56
1.1578968056065e-60
2.1771094440431e-61
1.0352415490249e-57
7.2486392989574e-62
6.038258185673e-59
3.0415827438903e-64
5.7239972718159e-65
2.6340157030665e-60
1.7563334218864e-64
3.8898086848644e-67
5.809395194928e-66
1.4095523863194e-68
5.6606015696001e-65
4.8719857243907e-64
1.164960230997e-64
4.0498373546902e-66
6.5698578598469e-65
3.9554099497355e-69
1.4622814862703e-73
6.6802597814282e-68
4.3557584807128e-68
1.1122728147385e-75
3.9326557013499e-70
3.4725253389039e-69
7.1353724216297e-70
8.8245745643012e-71
3.1410573169882e-70
1.9767705642129e-74
5.0758600612262e-71
1.6380856522533e-72
5.1048708720661e-72
0
0
0
0
0
0
0
3.129309926704e-31
1.9143371201931e-29
5.6668558045587e-28
1.0750628396469e-26
1.4717352794864e-25
1.5080165957041e-24
1.1856569337359e-23
8.2240282447262e-23
6.0194145752708e-22
4.570324328741e-21
3.1697989182687e-20
1.8883103985035e-19
9.4320891844969e-19
3.9131891832389e-18
1.350600996524e-17
3.9075210872288e-17
9.5953515520509e-17
2.0374951959865e-16
3.8339329468663e-16
6.559029060017e-16
1.038650095933e-15
1.5198217420804e-15
1.9801964132431e-15
2.1837987440975e-15
2.1756182584331e-15
2.0912040336892e-15
1.8696882749468e-15
1.4700963700612e-15
9.6773998263809e-16
5.0405666434753e-16
1.9841679028305e-16
5.9326512458474e-17
1.4979469147722e-17
3.7840122334008e-18
1.0567004910181e-18
3.2430703570977e-19
1.0522728564968e-19
3.5048421214153e-20
1.1759776162722e-20
3.9194972669187e-21
1.282721428358e-21
4.0850397808147e-22
1.2592956988882e-22
3.7557673456033e-23
1.08803085593e-23
3.0815220128032e-24
8.5849454615188e-25
2.3619945662344e-25
6.4287853183736e-26
1.7317716493082e-26
4.6181884522124e-27
1.219772664536e-27
3.193056984258e-28
8.2900863105898e-29
2.1359925790247e-29
5.4644350471459e-30
1.3886058713377e-30
3.5064248146049e-31
8.8014025583086e-32
2.1967412646563e-32
5.453453905061e-33
1.3469305686779e-33
3.3105872745438e-34
8.0993126588969e-35
1.9727142538683e-35
4.7844947076919e-36
1.1556887372463e-36
2.7806751119302e-37
6.6654733439219e-38
1.5920090722343e-38
3.7892416851311e-39
8.9888906042415e-40
2.1254866404133e-40
5.0102292131523e-41
1.17746873908e-41
2.7591596530478e-42
6.4473410347781e-43
1.5024476583267e-43
3.4919616272258e-44
8.0951632511965e-45
1.8719777898404e-45
4.3184309543032e-46
9.938738100913e-47
2.2821535101464e-47
5.2287015978379e-48
1.1953746360238e-48
2.7270966173022e-49
6.2087167548101e-50
1.410866426945e-50
3.1957625855535e-51
7.324852718328e-52
1.4490920433289e-52
6.0307652247123e-53
0
0
0
0
0
0
2.8759909168209e-31
2.5512835366321e-29
1.0251004087594e-27
2.5752431914696e-26
4.5818236450868e-25
6.193751011144e-24
6.5262311363235e-23
5.4241144964963e-22
3.671066810424e-21
2.1181073267409e-20
1.239919383732e-19
8.586285116441e-19
5.5751622200018e-18
3.059153054569e-17
1.4450904054127e-16
5.587777880262e-16
1.6987293027067e-15
4.0625993085903e-15
7.890014448998e-15
1.3218790920257e-14
2.0482711661422e-14
3.0701179219005e-14
4.4541436839838e-14
5.9569629215893e-14
6.7995405160462e-14
6.8295280731694e-14
6.6179477189851e-14
5.9828458645612e-14
4.7833441933525e-14
3.2129068683671e-14
1.7206316459905e-14
7.0650052928199e-15
2.2517547131928e-15
6.1758557255956e-16
1.6969730259425e-16
5.0984979986829e-17
1.6699359181681e-17
5.7640230559813e-18
2.0371398905474e-18
7.2285311634078e-19
2.5397823063326e-19
8.743053235709e-20
2.9236738699256e-20
9.4376090669368e-21
2.9332737293297e-21
8.7981646517549e-22
2.5627829798374e-22
7.3047240910369e-23
2.0497279792372e-23
5.681220060777e-24
1.5573038278851e-24
4.2232214648684e-25
1.1334550183981e-25
3.0124151139162e-26
7.9340658868147e-27
2.0723106900784e-27
5.3709691452253e-28
1.3819903833636e-28
3.5318131729763e-29
8.9680429362265e-30
2.2633810369752e-30
5.6795979105444e-31
1.4174414223323e-31
3.5191426354525e-32
8.6940015337176e-33
2.1377258631813e-33
5.2326852547855e-34
1.2753272740248e-34
3.0954316194545e-35
7.4833486039099e-36
1.8022444173936e-36
4.3245175093807e-37
1.0340157653542e-37
2.4639834262707e-38
5.8522349916903e-39
1.3855692510485e-39
3.2704201656699e-40
7.6964673797529e-41
1.8060643312116e-41
4.2263749501439e-42
9.8635428090617e-43
2.2959536981964e-43
5.3307954203694e-44
1.2346713860063e-44
2.8528010039068e-45
6.5762926661633e-46
1.5125432437871e-46
3.4711883640166e-47
7.9489984960128e-48
1.816722699118e-48
4.1384810679121e-49
9.5367770523192e-50
1.9002129933052e-50
7.9254841528748e-51
0
0
0
0
0
1.259902739933e-31
1.5465853083837e-29
7.9606874373122e-28
2.4561937146042e-26
5.2897863076453e-25
8.6184248664409e-24
1.1129904145136e-22
1.1655785743987e-21
1.0010341590805e-20
7.0942508244135e-20
4.0876360124196e-19
2.0692848184424e-18
1.0167776049019e-17
6.7259669763848e-17
6.4069832290806e-16
3.8518260834299e-15
1.7141202001715e-14
6.3468861188577e-14
1.539638229481e-13
2.3332970101316e-13
2.7614962164712e-13
3.167155762314e-13
3.9086785958117e-13
5.2994629908125e-13
7.3789260413617e-13
9.2701624292143e-13
9.7427010424496e-13
9.5544548770484e-13
8.8007769650101e-13
7.1992086832476e-13
4.9084485179441e-13
2.6612205925933e-13
1.1173062082867e-13
3.7510052488268e-14
1.1226203195534e-14
3.4106208189491e-15
1.1210597076111e-15
3.9611543256224e-16
1.4611354204061e-16
5.4828915181465e-17
2.0562963174728e-17
7.6202275949385e-18
2.7672222697296e-18
9.7689773428788e-19
3.325836079198e-19
1.0855790175657e-19
3.3944687660298e-20
1.0219680684438e-20
2.9887146183107e-21
8.5644024506177e-22
2.4188166699875e-22
6.7503492631183e-23
1.8627856071472e-23
5.0839522293045e-24
1.3728707884459e-24
3.6707613671125e-25
9.7257652943848e-26
2.5552922912522e-26
6.6613320150608e-27
1.7238426337834e-27
4.4303298263999e-28
1.1312142525253e-28
2.8706366327063e-29
7.2423071696563e-30
1.8170606714448e-30
4.5349553864132e-31
1.1261477221767e-31
2.7831436431156e-32
6.8467651194755e-33
1.6769869620908e-33
4.0902253898843e-34
9.9359978383457e-35
2.4043124278533e-35
5.7962817317125e-36
1.3923460723726e-36
3.3330380854815e-37
7.9520958312603e-38
1.8911281380749e-38
4.4833770334467e-39
1.0596900081628e-39
2.4973740159542e-40
5.8689334303927e-41
1.3754450089262e-41
3.2149293048e-42
7.4951043860237e-43
1.7429874775798e-43
4.0434482830006e-44
9.3579302175066e-45
2.1607591839018e-45
4.9779831801994e-46
1.1444572521929e-46
2.6223476895079e-47
6.0766911415333e-48
1.2195156804313e-48
5.0999234773965e-49
0
0
0
0
0
3.9453510490936e-30
3.3804624511076e-28
1.3847564666364e-26
3.640359860184e-25
6.9515691482695e-24
1.0336072645675e-22
1.2501041349891e-21
1.2610652402877e-20
1.0753190394619e-19
7.7819702518405e-19
4.7030794251987e-18
2.4018201188676e-17
1.019066745889e-16
4.8275595947368e-16
3.1259801377372e-15
3.1710359692548e-14
8.7933441593168e-13
5.8584851438068e-12
1.4870945843979e-11
1.6853661814119e-11
1.3807394868942e-11
9.2513321804964e-12
5.757936647488e-12
5.596101858007e-12
6.244503104417e-12
7.427485696544e-12
8.282287419381e-12
8.2606836752649e-12
7.7549651784139e-12
6.4040317507359e-12
4.3478182392161e-12
2.3477948892441e-12
1.0034389825541e-12
3.5777166915399e-13
1.1850192072965e-13
4.0371309915569e-14
1.4707404155023e-14
5.6650268366166e-15
2.2488727813396e-15
9.0016078455886e-16
3.5818482507212e-16
1.4055305416721e-16
5.4076387486908e-17
2.0253642547057e-17
7.3163212087228e-18
2.5264736516366e-18
8.3023964039419e-19
2.6027399122578e-19
7.851927320538e-20
2.3047482351509e-20
6.6414523833079e-21
1.8881449584303e-21
5.30482284705e-22
1.4733019689443e-22
4.045671630465e-23
1.0990424865923e-23
2.9560463464553e-24
7.878276252002e-25
2.0819723310042e-25
5.4587062684515e-26
1.4206439734606e-26
3.6715357914026e-27
9.4264184918169e-28
2.4051211038255e-28
6.1004192732189e-29
1.5386637768895e-29
3.8601743909443e-30
9.6351286340287e-31
2.3932898783884e-31
5.9171499109963e-32
1.4564476522746e-32
3.5696179503792e-33
8.7129897064872e-34
2.1183630842143e-34
5.1308106656905e-35
1.2381822037328e-35
2.9775083256902e-36
7.1358342686251e-37
1.7045519562693e-37
4.0587935972281e-38
9.6349576201818e-39
2.2804010146498e-39
5.3817240759229e-40
1.26653893483e-40
2.9726157814586e-41
6.9585145014109e-42
1.6247425662659e-42
3.784199179951e-43
8.7925526712806e-44
2.0381266078936e-44
4.714132588341e-45
1.0866328045446e-45
2.5324066129514e-46
5.1187864046837e-47
2.147242597044e-47
0
0
0
0
1.2753758631848e-43
5.8515770171651e-29
4.3282362579716e-27
1.5741494151367e-25
3.7477043008557e-24
6.569216901714e-23
9.0504178811282e-22
1.0237065879024e-20
9.7785646741473e-20
8.0496521388979e-19
5.74763751733e-18
3.5426774757942e-17
1.8731388622804e-16
8.1685055882784e-16
3.2039143703596e-15
1.2817080107919e-14
8.9357985407735e-14
1.4002211229611e-12
1.4396762649093e-11
2.0211735912047e-10
6.6919935823762e-10
5.9982393760072e-10
4.0068497738621e-10
2.3624551162782e-10
1.2673045165367e-10
7.4203117091999e-11
5.6765599562637e-11
5.3273355976253e-11
5.0967707104851e-11
4.6016355128441e-11
3.6439447826308e-11
2.3862947454009e-11
1.2573206561629e-11
5.4439940679034e-12
2.0906677636726e-12
7.8505120182901e-13
3.0664802536668e-13
1.2602434350596e-13
5.3631751003406e-14
2.3137293490764e-14
9.9538557341246e-15
4.2311957574143e-15
1.7698876808896e-15
7.2613345927368e-16
2.904192238351e-16
1.121261243723e-16
4.1321873003738e-17
1.4414753897975e-17
4.7527545068902e-18
1.4911241932008e-18
4.5061482124234e-19
1.3280094531214e-19
3.8492148717755e-20
1.1014538883107e-20
3.1144371211661e-21
8.7024887835404e-22
2.4037614167671e-22
6.567885635808e-23
1.7767169864293e-23
4.7623174039941e-24
1.2656617442244e-24
3.3370105862991e-25
8.7326521174032e-26
2.2691849224565e-26
5.857317533267e-27
1.5024082410856e-27
3.8307066346083e-28
9.7118211314345e-29
2.4489028010813e-29
6.1432791673279e-30
1.5335118062655e-30
3.8100003646597e-31
9.4232360608211e-32
2.3205577758042e-32
5.6908431489103e-33
1.3900245951469e-33
3.3821685091577e-34
8.1989089050729e-35
1.9804432376891e-35
4.7672541854382e-36
1.1437331767463e-36
2.7351408112897e-37
6.5204660026285e-38
1.5497602825107e-38
3.6726376132049e-39
8.6787645810128e-40
2.0452231166779e-40
4.8068581305266e-41
1.1268157045266e-41
2.6347989907139e-42
6.1456891553633e-43
1.4302181795048e-43
3.316715973335e-44
7.7744991347781e-45
1.5827104448038e-45
6.6621213462779e-46
0
0
0
0
-1.1997824327225e-55
5.443179797319e-28
3.7394923396157e-26
1.2727420683463e-24
2.8520776617856e-23
4.723729374274e-22
6.1568970811284e-21
6.5854976611508e-20
5.9519798104604e-19
4.6572458148935e-18
3.204595672504e-17
1.9453277541772e-16
1.035298036259e-15
4.7406381611728e-15
1.8788026141315e-14
6.0944920612673e-14
2.2787662396001e-13
1.4469007583366e-12
1.3204478056756e-11
1.3224046151654e-10
1.1024549819688e-09
1.4789972686539e-08
1.5378312663559e-08
1.0423803374534e-08
5.3605585626937e-09
2.289810445342e-09
1.0786086885111e-09
6.5703001243193e-10
4.5908129665084e-10
3.1785779803484e-10
1.9468751594452e-10
9.8801570539385e-11
4.2806847125092e-11
1.7660296576423e-11
7.4709157006919e-12
3.3155386711269e-12
1.5326175606803e-12
7.2634294527536e-13
3.470826476033e-13
1.6486487819513e-13
7.7152172453434e-14
3.5441274077041e-14
1.5969959722032e-14
7.0509170613911e-15
3.0364405405331e-15
1.2637379878671e-15
5.0199173537098e-16
1.880697262422e-16
6.6031308502524e-17
2.1784508180063e-17
6.8306332757554e-18
2.0670597544187e-18
6.1165290779935e-19
1.7830346536829e-19
5.1337495257421e-20
1.4603019602547e-20
4.103675834349e-21
1.1397654421219e-21
3.1312909728549e-22
8.5169813825949e-23
2.2953341378721e-23
6.1331865887367e-24
1.6257060230028e-24
4.2768071961806e-25
1.1171349142671e-25
2.8984780658882e-26
7.4725351987172e-27
1.914876795347e-27
4.8788532217208e-28
1.236280867864e-28
3.1163630783109e-29
7.8164787132661e-30
1.9511905780468e-30
4.8484200052243e-31
1.199480879276e-31
2.954976898172e-32
7.2502454910388e-33
1.7719641090142e-33
4.3144195049804e-34
1.0466777534651e-34
2.5303541826579e-35
6.0964740976365e-36
1.4640427781413e-36
3.5047115748903e-37
8.3640707427067e-38
1.9901744999296e-38
4.7218447776064e-39
1.1171627281195e-39
2.6359707580837e-40
6.2032337787827e-41
1.4560508525745e-41
3.4095481531954e-42
7.9552510629229e-43
1.8756934659416e-43
3.8456338246687e-44
1.6248450353203e-44
0
0
0
0
0
3.607437262504e-27
2.3782519670692e-25
7.7664622615545e-24
1.6710098630231e-22
2.6584707200208e-21
3.32995416425e-20
3.4196420972779e-19
2.9600138174199e-18
2.20836749698e-17
1.4487359343329e-16
8.4570153046491e-16
4.4142059219909e-15
2.0371669656225e-14
8.3834467984125e-14
2.8597056398705e-13
8.025468658766e-13
2.3108962601928e-12
9.5404262420529e-12
6.051524763663e-11
6.7802993242844e-10
7.5969593212676e-09
1.0695345547625e-07
2.3410468643055e-07
1.5395089148489e-07
7.6329361262068e-08
3.6710938293744e-08
1.7489739663336e-08
8.5731758333099e-09
4.1978807660879e-09
1.8941683902198e-09
6.8533552188965e-10
1.763275819447e-10
4.2976639752796e-11
1.7335209107379e-11
9.1458866579326e-12
5.0844927504525e-12
2.8201526540418e-12
1.5373088572745e-12
8.1815971153379e-13
4.2414707583729e-13
2.141937234292e-13
1.0552123833939e-13
5.0763399572754e-14
2.3794489784581e-14
1.0785580570155e-14
4.6685086057456e-15
1.9017194258974e-15
7.2073817893399e-16
2.5338397878136e-16
8.3312436116192e-17
2.6052641895681e-17
7.8903214387621e-18
2.3443598891189e-18
6.8730362765355e-19
1.9905346930656e-19
5.6933359560087e-20
1.6082474261144e-20
4.4895810487594e-21
1.2397414793526e-21
3.3894092613049e-22
9.1815193846315e-23
2.4658813792005e-23
6.5694120639795e-24
1.7369298312054e-24
4.5595888874487e-25
1.1888483016927e-25
3.0799171185037e-26
7.9305677577838e-27
2.0302570301807e-27
5.1688934475785e-28
1.3090402428789e-28
3.2985120544374e-29
8.2715372150362e-30
2.0646395441253e-30
5.1306563524e-31
1.2695438265828e-31
3.1285209767721e-32
7.679149302234e-33
1.8777242844277e-33
4.5746039226891e-34
1.1105369838673e-34
2.686718537173e-35
6.4784307496646e-36
1.5571204372942e-36
3.7309815511626e-37
8.912797008416e-38
2.1229235086325e-38
5.0422165706506e-39
1.1942946331333e-39
2.8211989679046e-40
6.6476832994787e-41
1.5606481588997e-41
3.7015741627945e-42
7.6429174996686e-43
3.2423274823663e-43
0
0
0
0
0
1.8313939020681e-26
1.1782237871517e-24
3.7468313876875e-23
7.8370778501352e-22
1.2116005757143e-20
1.4730538061951e-19
1.4646348073744e-18
1.2233268031713e-17
8.768165809362e-17
5.4986957535642e-16
3.0636627381753e-15
1.5320465665843e-14
6.9404128251984e-14
2.8445250830533e-13
1.0363770100869e-12
3.1555669101332e-12
7.0726810679646e-12
1.4886555935946e-11
3.5600123644389e-11
2.3078851460644e-10
3.0805130358527e-09
4.8272188594218e-08
4.0198406583285e-07
2.0730823417408e-06
1.745627516133e-06
1.129901471871e-06
6.0242515952569e-07
2.1919608239951e-07
7.256179819608e-08
2.9097975020486e-08
1.136933158418e-08
2.9141169624795e-09
3.4992670405032e-10
3.3138244050286e-11
1.6042350029456e-11
1.1453767009277e-11
7.6748760214956e-12
4.7509811585101e-12
2.849263905716e-12
1.662050110355e-12
9.3929770313963e-13
5.1469840110155e-13
2.7404062957833e-13
1.4176116994575e-13
7.0854748258979e-14
3.3811999892859e-14
1.515746847472e-14
6.2833785444635e-15
2.3868655614721e-15
8.3338244226623e-16
2.7173855311835e-16
8.4632316154772e-17
2.5671828871422e-17
7.6662328886468e-18
2.2609661864149e-18
6.5844517895466e-19
1.8926999793645e-19
5.371949896811e-20
1.5068065439327e-20
4.1811247465744e-21
1.1487311292457e-21
3.1271034481774e-22
8.4396140757968e-23
2.2593598268502e-23
6.0025329947871e-24
1.5832715354693e-24
4.1477876338203e-25
1.0796209574649e-25
2.792928622944e-26
7.1830755516708e-27
1.8371352050287e-27
4.6736994043729e-28
1.1829602220093e-28
2.9796321375777e-29
7.4700786625471e-30
1.8643981792685e-30
4.633175278597e-31
1.146610959222e-31
2.8262921337944e-32
6.9397508573661e-33
1.6976773078109e-33
4.138147990615e-34
1.0051909250838e-34
2.4335033607961e-35
5.872225481177e-36
1.4125536626615e-36
3.3875089825339e-37
8.0996990449215e-38
1.931116019024e-38
4.5912441354776e-39
1.0887250708749e-39
2.5719597930352e-40
6.1369798302831e-41
1.2761356025947e-41
5.4370403094709e-42
0
0
0
0
0
7.4222883685712e-26
4.7114317310583e-24
1.4751292756296e-22
3.0315608350095e-21
4.5945910345209e-20
5.4657128240992e-19
5.3051694489697e-18
4.3169334354349e-17
2.9991445677964e-16
1.8060989823827e-15
9.5833948040119e-15
4.5398749256595e-14
1.9567136176491e-13
7.7068846562198e-13
2.8501632313216e-12
9.1637825079449e-12
2.6398278817952e-11
4.7841932554423e-11
6.8805001960678e-11
9.6166121747604e-11
8.7727855629297e-10
1.3296951059184e-08
2.3917593858405e-07
2.908242151888e-06
1.6561349637074e-05
2.6223066774155e-05
1.5542885411263e-05
5.0075789586012e-06
1.4950961396343e-06
6.1422436771756e-07
2.5923986454078e-07
7.7193260265344e-08
1.1311028917773e-08
5.206785450814e-10
5.3024459714607e-11
1.9827969680382e-11
1.3400221329429e-11
1.0487861511962e-11
7.4537808152953e-12
4.8548395356155e-12
3.0590880907156e-12
1.8791876035128e-12
1.1217241617254e-12
6.4938018764734e-13
3.6252103466078e-13
1.9290411944248e-13
9.6190491364538e-14
4.4108168075296e-14
1.8331063524782e-14
6.8841763263225e-15
2.3666341881599e-15
7.6372080220925e-16
2.3745192020417e-16
7.2350686098622e-17
2.1745815545505e-17
6.451777931876e-18
1.8884261246899e-18
5.4533380310363e-19
1.5549012350513e-19
4.3819788188987e-20
1.2217613371682e-20
3.3728991100582e-21
9.2260063816956e-22
2.501898397972e-22
6.7296974775591e-23
1.7963634540557e-23
4.7604692442799e-24
1.2529378126218e-24
3.2763169401848e-25
8.5144833343221e-26
2.1997562893701e-26
5.65135309851e-27
1.4441112157639e-27
3.6712995914151e-28
9.2875986460273e-29
2.3385056440571e-29
5.8614605267671e-30
1.4627882322825e-30
3.6352658920747e-31
8.9978040788121e-32
2.2184262946076e-32
5.4490451595301e-33
1.3335772251552e-33
3.2523000837639e-34
7.9047325007559e-35
1.9149378024438e-35
4.6242089096545e-36
1.1132111284471e-36
2.6718698911296e-37
6.3941731338728e-38
1.5260520611222e-38
3.628030628082e-39
8.7099536532287e-40
1.824085107387e-40
7.8071721078592e-41
0
0
0
5.5223831426417e-56
4.8718420604129e-40
2.4508403672688e-25
1.5491756808451e-23
4.8172395448183e-22
9.8125566999559e-21
1.4691784706492e-19
1.7229987038588e-18
1.6471031004364e-17
1.3167862000691e-16
8.9603608206121e-16
5.2668818470391e-15
2.7011671417015e-14
1.2169106368834e-13
4.9036446347532e-13
1.7978254612096e-12
6.1828369156039e-12
1.9954568750678e-11
6.1512370172462e-11
1.7047425596192e-10
2.7473132711104e-10
2.4330813584297e-10
2.9490698218569e-10
2.6865167898485e-09
9.215451395198e-08
1.4988543752315e-06
2.7805265966556e-05
0.00012503201552224
0.00011783104327399
7.3093408817071e-05
3.4638365028508e-05
1.4089554214816e-05
5.9034551908725e-06
2.0801674242543e-06
4.3178452576891e-07
3.2139796424905e-08
1.2320451209956e-09
1.9615368955191e-10
5.5008415430488e-11
1.8446748978725e-11
1.3170907384719e-11
1.0812699585033e-11
7.9766151617429e-12
5.4177853020953e-12
3.5948143605344e-12
2.3356185281516e-12
1.4666626629585e-12
8.7723788375295e-13
4.904022373416e-13
2.5072452939914e-13
1.1501141731306e-13
4.6947514759594e-14
1.7213610048157e-14
5.8161287420194e-15
1.8673195468876e-15
5.8293098735718e-16
1.7890044944464e-16
5.4130469473467e-17
1.6147372263569e-17
4.7487782814146e-18
1.3776795548387e-18
3.9466726502704e-19
1.117583627937e-19
3.1310668621618e-20
8.6856526409002e-21
2.3872346772272e-21
6.5045895269226e-22
1.7579245868346e-22
4.7145264856769e-23
1.2552104354656e-23
3.3189606898019e-24
8.7185971459394e-25
2.276087794315e-25
5.9068635455083e-26
1.5242914050751e-26
3.9122885097708e-27
9.9895575059987e-28
2.5380937392856e-28
6.418036199088e-29
1.6155150088705e-29
4.0486487842784e-30
1.0103471306693e-30
2.5110725824799e-31
6.2163977996999e-32
1.5330921723619e-32
3.7670670786031e-33
9.2235187749704e-34
2.2505974581654e-34
5.4733596015983e-35
1.3268129055837e-35
3.2063258538385e-36
7.7247392625055e-37
1.8557700404686e-37
4.4405610491467e-38
1.0727379675074e-38
2.2627819741494e-39
9.7318222765941e-40
0
0
0
5.5651382799093e-54
4.7576674112986e-39
6.5851140849886e-25
4.1805667846614e-23
1.301069276729e-21
2.6464430460887e-20
3.9442621534393e-19
4.5942904208705e-18
4.3564106765892e-17
3.4451538907653e-16
2.3173381672271e-15
1.3432046297861e-14
6.7686824260291e-14
2.9893000394272e-13
1.1591070707439e-12
3.9622161206038e-12
1.2260784570646e-11
3.562710422851e-11
1.0035766777949e-10
3.0668195483302e-10
8.5037165283194e-10
1.648326215968e-09
1.533126211284e-09
2.2098550510189e-09
1.7489535669244e-08
2.7379867312612e-07
8.921920367653e-06
5.1278386552731e-05
0.00051522208169394
0.00075380269820271
0.00048620974389286
0.00025410649275328
0.0001271673910005
5.3190648262827e-05
1.4490827205804e-05
1.7343488393e-06
5.9984239248068e-08
4.8160624157969e-09
1.2017822945523e-09
2.3826060958886e-10
5.6703832858133e-11
1.8980152285635e-11
1.4401052801864e-11
1.2401018028307e-11
9.583741508935e-12
6.896929251615e-12
4.8275945310032e-12
3.2441525842921e-12
2.0367813416223e-12
1.1626755053044e-12
5.9000111223376e-13
2.6336416863316e-13
1.0412339798899e-13
3.7323171413547e-14
1.2511613965171e-14
4.0293000146738e-15
1.2670390088113e-15
3.9166905860446e-16
1.1922399680639e-16
3.5749247211011e-17
1.0564549385238e-17
3.0797122694013e-18
8.8656020084165e-19
2.5228172164607e-19
7.10271603394e-20
1.9799257834966e-20
5.4681463770956e-21
1.4970857941727e-21
4.0652910003352e-22
1.0954094186408e-22
2.9301094348264e-23
7.7835882665163e-24
2.0540740856525e-24
5.3868072409042e-25
1.4042791937685e-25
3.6399869863357e-26
9.3838124013172e-27
2.4065381343297e-27
6.140925345264e-28
1.5595158327063e-28
3.9422313307733e-29
9.9212624509048e-30
2.4861976849429e-30
6.2046209486201e-31
1.5422994967435e-31
3.8190501396257e-32
9.4217402753586e-33
2.3160549423829e-33
5.6735975124252e-34
1.3851838338741e-34
3.3708604554205e-35
8.1770561535104e-36
1.9777141702679e-36
4.7638500441531e-37
1.1582250518287e-37
2.4609847266449e-38
1.0638750122325e-38
0
0
0
2.0059124350205e-54
2.4519790799385e-41
1.3481058547818e-24
8.7127519713539e-23
2.7470814922797e-21
5.6393324864826e-20
8.4581256528528e-19
9.8859671750729e-18
9.3751176553336e-17
7.3965949615774e-16
4.9534441679635e-15
2.8486003323556e-14
1.422841079936e-13
6.2133358893902e-13
2.3765183745833e-12
8.0426795220584e-12
2.3746981571056e-11
6.1842446951812e-11
1.5016038421338e-10
3.8514490489261e-10
1.2575579452264e-09
5.5854470182033e-09
1.6474402392876e-08
2.5209605373725e-08
3.7885336808241e-08
1.3336446973946e-07
1.1561480385775e-06
1.4142861174585e-05
0.00019622835099043
0.0015439129415024
0.0047932316244192
0.0036108501977952
0.0021602894955056
0.0011501025640349
0.00040933665586047
6.8921706228374e-05
3.2302451208388e-06
1.4333919230989e-07
3.2670414172913e-08
6.6415342866016e-09
1.2606319988491e-09
2.5009121068825e-10
6.0257840326462e-11
2.0696882458264e-11
1.7875679055922e-11
1.6461817439925e-11
1.3520189954882e-11
1.0157932901896e-11
7.0577947650262e-12
4.4429790825036e-12
2.4782672566647e-12
1.2128231098703e-12
5.2245096371457e-13
2.0144242206807e-13
7.1400824674485e-14
2.3935178884564e-14
7.7538274046249e-15
2.4561895283914e-15
7.6434038475367e-16
2.3399851394156e-16
7.0527104977307e-17
2.0945971255345e-17
6.1364218511606e-18
1.7753209292546e-18
5.0771132545379e-19
1.4365040859437e-19
4.0240780810896e-20
1.1167982387595e-20
3.0724164978899e-21
8.383115611122e-22
2.2696146704322e-22
6.0996169200792e-23
1.6278812053601e-23
4.3158278294806e-24
1.1370135329172e-24
2.9775218878388e-25
7.75264436532e-26
2.0075170924007e-26
5.1711142447677e-27
1.3253128001396e-27
3.3802553064038e-28
8.5814195195053e-29
2.1688208874724e-29
5.4577642712004e-30
1.3677276654055e-30
3.4138269081588e-31
8.4878938413792e-32
2.1024765164208e-32
5.1890545249576e-33
1.2762077339677e-33
3.1280847392158e-34
7.6418871475302e-35
1.8611307199118e-35
4.5137086574004e-36
1.1046570569635e-36
2.3646747093235e-37
1.0278275626614e-37
0
0
0
0
1.0195788231248e-55
1.791561052416e-24
1.1953995576694e-22
3.876616843343e-21
8.1504644196101e-20
1.2499579204324e-18
1.4891109616287e-17
1.4330071323773e-16
1.1437948436429e-15
7.7129028586847e-15
4.4491006660842e-14
2.2186234000112e-13
9.6172093694653e-13
3.6493232370317e-12
1.2137713004738e-11
3.5674828269035e-11
9.465005651652e-11
2.2192950243791e-10
5.3167638653312e-10
1.8324289644045e-09
9.9472317403757e-09
6.1082677597804e-08
2.4191406456501e-07
4.8762267605368e-07
7.9155119138306e-07
2.0810619989178e-06
1.4548707821602e-05
0.00011494297576367
0.0011018819753954
0.0073883965948876
0.033260397110888
0.034395628781773
0.02597440225107
0.011298223604709
0.0019434238034265
7.6331033486639e-05
3.7786087194506e-06
9.1426824575772e-07
1.8162598656187e-07
3.4051503647032e-08
6.4007767390354e-09
1.2212141101561e-09
2.4496774252154e-10
6.1745882530951e-11
2.8628212139749e-11
2.8704763572531e-11
2.7104795708202e-11
2.1101838492824e-11
1.4244613888796e-11
8.6257772886085e-12
4.6246055051909e-12
2.1817293819602e-12
9.1295862484315e-13
3.4609372998506e-13
1.2209768759902e-13
4.1070193748847e-14
1.3392911550312e-14
4.271498492032e-15
1.3373701469628e-15
4.1166734246513e-16
1.2471383963254e-16
3.7225437166416e-17
1.0960552766183e-17
3.1869455651107e-18
9.1598907595949e-19
2.6046180352301e-19
7.3324962060401e-20
2.0449929731589e-20
5.6534280842032e-21
1.5500106336943e-21
4.2165885455783e-22
1.1386065312653e-22
3.053077082687e-23
8.1321416400747e-24
2.1523553885233e-24
5.6622964319902e-25
1.4810120954272e-25
3.8523079382059e-26
9.9673770543351e-27
2.5658561601562e-27
6.5729886782394e-28
1.6759245603198e-28
4.2538644116287e-29
1.0750340699649e-29
2.7054385119985e-30
6.7809948692347e-31
1.6929699957369e-31
4.2107710537681e-32
1.0434792202194e-32
2.5767162978546e-33
6.3409416737922e-34
1.5553791180079e-34
3.7988230331673e-35
9.3604012692658e-36
2.0190227478103e-36
8.8268529021089e-37
0
0
0
1.8535843114473e-72
9.1762094081229e-57
1.7839170940768e-24
1.1998780945841e-22
3.927638839043e-21
8.3429091798483e-20
1.2940338438563e-18
1.559856333103e-17
1.5179943135602e-16
1.2249516852683e-15
8.3355606475862e-15
4.8465662377654e-14
2.4273212627676e-13
1.0535361848831e-12
3.9835260151884e-12
1.3141045990182e-11
3.8235922391113e-11
9.87621087796e-11
2.4857346184297e-10
7.2836865642937e-10
3.1984327245887e-09
1.9439902841123e-08