/*--------------------------------*- C++ -*----------------------------------*\
  =========                 |
  \\      /  F ield         | OpenFOAM: The Open Source CFD Toolbox
   \\    /   O peration     | Website:  https://openfoam.org
    \\  /    A nd           | Version:  7
     \\/     M anipulation  |
\*---------------------------------------------------------------------------*/
FoamFile
{
    version     2.0;
    format      ascii;
    class       surfaceScalarField;
    location    "1.4";
    object      alphaPhi0.water;
}
// * * * * * * * * * * * * * * * * * * * * * * * * * * * * * * * * * * * * * //

dimensions      [0 3 -1 0 0 0 0];

internalField   nonuniform List<scalar> 
11840
(
0
0
0
0
0
0
0
0
0
0
0
0
0
0
0
0
0
0
0
0
0
0
0
0
0
0
0
0
0
0
0
0
0
0
0
0
0
0
0
0
0
0
0
0
0
0
0
0
0
0
0
0
0
0
0
0
0
0
0
0
0
0
0
0
0
0
0
0
0
0
0
0
0
0
0
0
0
0
0
0
0
0
0
0
0
0
0
0
0
0
0
0
0
0
0
0
0
0
0
0
0
0
0
0
0
0
0
0
0
0
0
0
0
0
0
0
0
0
0
0
0
0
0
0
0
0
0
0
0
0
0
0
0
0
0
0
0
0
0
0
0
0
0
0
0
0
0
0
0
0
0
0
0
0
0
0
0
0
0
0
0
0
0
0
0
0
0
0
0
0
0
0
0
0
0
0
0
0
0
0
0
0
0
0
0
0
0
0
0
0
0
0
0
0
0
0
0
0
0
0
0
0
0
0
0
0
0
0
0
0
0
0
0
0
0
0
0
0
0
0
0
0
0
0
0
0
0
0
0
0
0
0
0
0
0
0
0
0
0
0
0
0
0
0
0
0
0
0
0
0
0
0
0
0
0
0
0
0
0
0
0
0
0
0
0
0
0
0
0
0
0
0
0
0
0
0
0
0
0
0
0
0
0
0
0
0
0
0
0
0
0
0
0
0
0
0
0
0
0
0
0
0
0
0
0
0
0
0
0
0
0
0
0
0
0
0
0
0
0
0
0
0
0
0
0
0
0
0
0
0
0
0
0
0
0
0
0
0
0
0
0
0
0
0
0
0
0
0
0
0
0
0
0
0
0
0
0
0
0
0
0
0
0
0
0
0
0
0
0
0
0
0
0
0
0
0
0
0
0
0
0
0
0
0
0
0
0
0
0
0
0
0
0
0
0
0
0
0
0
0
0
0
0
0
0
0
0
0
0
0
0
0
0
0
0
0
0
0
0
0
0
0
0
0
0
0
0
0
0
0
0
0
0
0
0
0
0
0
0
0
0
0
0
0
0
0
0
0
0
0
0
0
0
0
0
0
0
0
0
0
0
0
0
0
0
0
0
0
0
0
0
0
0
0
0
0
0
0
0
0
0
0
0
0
0
0
0
0
0
0
0
0
0
0
0
0
0
0
0
0
0
0
0
0
0
0
0
0
0
0
0
0
0
0
0
0
0
0
0
0
0
0
0
0
0
0
0
0
0
0
0
0
0
0
0
0
0
0
0
0
0
0
0
0
0
0
0
0
0
0
0
0
0
0
0
0
0
0
0
0
0
0
0
0
0
0
0
0
0
0
0
0
0
0
0
0
0
0
0
0
0
0
0
0
0
0
0
0
0
0
0
0
0
0
0
0
0
0
0
0
0
0
0
0
0
0
0
0
0
0
0
0
0
0
0
0
0
0
0
0
0
0
0
0
0
0
0
0
0
0
0
-4.2984902185036e-75
-2.1492451092518e-75
-5.4705931485951e-75
-2.7352964024264e-75
4.2161305850992e-62
1.2856436079354e-61
3.8745468460673e-58
2.8038417637817e-58
4.0234011844513e-57
2.6222292863797e-57
6.3745577826137e-56
3.6182303509508e-56
3.1176667946891e-55
2.1481888604027e-55
1.403254565197e-54
9.7930068393362e-55
6.1408349186116e-54
4.313537632841e-54
2.5021242974689e-53
1.7859204713914e-53
9.4183631977363e-53
6.4696296508787e-53
1.0382844432362e-51
6.5769160511722e-52
3.2273941141611e-49
1.9444304500897e-49
2.6565184530479e-48
1.6600692102593e-48
7.4044580916574e-48
5.2238202600064e-48
5.8438323364398e-47
3.6957933805073e-47
2.1224276928186e-46
1.3935083153085e-46
5.2823912042785e-46
3.8927993567908e-46
9.6152103893986e-46
8.1969317687724e-46
1.0313108613904e-45
1.0754289176572e-45
1.0249227716661e-45
1.0801277930396e-45
1.0335825970122e-45
1.0185446608849e-45
9.8524441457844e-46
9.7834902923503e-46
1.1157246884745e-45
7.2249466780498e-46
1.3144173312158e-45
1.0219733797496e-45
1.6166075352103e-45
8.0830376762055e-46
1.5206036072844e-45
7.8292580449841e-46
8.9749476467681e-46
5.7326045515879e-46
2.9923233922438e-46
2.6515793653305e-46
6.7010694482696e-47
8.2543245700652e-47
1.2068555667627e-47
2.7184240331474e-47
2.2589892388287e-48
6.1912611732202e-48
4.799440808038e-49
1.2345618248186e-48
7.5845484644814e-50
3.6301722684848e-49
1.7755970659748e-50
4.3080526902917e-50
2.857558053471e-51
1.3853764981844e-50
6.9676833844313e-52
1.7320631938052e-51
1.3184958998784e-52
5.2303369282901e-52
2.0089182378904e-53
1.044751614787e-52
4.9826269601306e-54
1.2328519757906e-53
7.4769282788842e-55
3.9460031210865e-54
1.8711437057087e-55
4.5961261381537e-55
2.8554722701742e-56
1.4771544874204e-55
5.2744267216015e-57
2.1364165527407e-56
1.3161264738255e-57
3.2474751019685e-57
1.9511368413595e-58
1.044877200058e-57
5.0724378678266e-59
1.1967784906045e-58
9.2075148991224e-60
3.8685484450787e-59
1.3707988150884e-60
7.3312975421014e-60
3.4273692836244e-61
8.4417616999201e-61
5.0603246574282e-62
2.7210713840465e-61
1.3179075314348e-62
3.1031559797196e-62
2.3923635013374e-63
1.0042454518943e-62
3.5927026934934e-64
1.9007057486859e-63
7.5204239842954e-65
2.2501289437747e-64
1.3298144128712e-65
5.6392691981669e-65
3.466876123868e-66
8.1543719846177e-66
6.2835290414243e-67
2.6402622297373e-66
9.2788969609075e-68
4.9991820593597e-67
2.4233452524355e-68
5.6819823201184e-68
4.4555651901195e-69
1.8379729439398e-68
8.5000358490036e-70
3.4381576254414e-69
1.5525731376108e-70
6.4909701910139e-70
2.3264024007492e-71
1.230915574507e-70
4.3893783177234e-72
1.7211280345316e-71
9.4020544392092e-73
2.7369882681331e-72
1.8839076543223e-73
5.6807728854476e-73
3.4731398515183e-74
1.3288944996071e-73
8.8794052258791e-75
2.1130910151142e-74
1.6113663576569e-75
6.7456798956082e-75
2.404917945121e-76
1.2785283247189e-75
5.1181140484836e-77
1.5036697667266e-76
1.2192090063334e-77
3.0474741885722e-77
1.8232324840529e-78
9.5988186851451e-78
3.4107300007017e-79
1.3500618307531e-78
7.3175977666898e-80
2.1327046603671e-79
1.5163211039946e-80
4.4215439758542e-80
3.0796062913389e-81
9.1091814907019e-81
7.2025818911818e-82
1.8281677457171e-81
1.0699320455421e-82
5.6794234282389e-82
2.2654570853221e-83
6.7167814721764e-83
5.3634232152621e-84
1.350761211862e-83
3.901171276464e-84
0
0
0
0
0
0
0
0
0
0
0
0
0
0
0
0
0
0
7.60465860046e-43
4.4011982167514e-43
1.6323474220823e-42
1.6734866780353e-42
9.8110962341419e-43
1.234039479623e-42
3.066862995258e-41
2.8009826328187e-41
5.523436085008e-42
2.5145193228135e-41
1.0133203769468e-42
4.5101157080612e-42
1.8433403735982e-43
8.28986339587e-43
3.3577965286671e-44
1.5075607207314e-43
2.6427635197446e-41
0
4.8050721140692e-42
2.1622563083377e-41
8.7365120377174e-43
3.9314209102975e-42
1.5884567330482e-43
7.1480553046692e-43
2.88810317482e-44
1.2996464155663e-43
2.9134847781173e-43
0
5.297245053009e-44
2.3837602728237e-43
9.6313546426108e-45
4.3341095890058e-44
1.7511553931616e-45
7.8801992607635e-45
3.1839190455889e-46
1.4327635350986e-45
5.7889492762143e-47
2.6050258466669e-46
1.0525897857728e-47
4.736542437838e-47
2.0691794056087e-48
8.9930502475575e-48
6.9080273425629e-45
0
1.2618727179476e-45
5.6623598972131e-45
2.6054604245473e-46
1.0988618655585e-45
2.1773281971338e-44
0
4.4057857637928e-45
1.8512979687844e-44
6.2345052041424e-43
0
6.2656591794906e-43
0
2.5795218296406e-44
6.0299959999186e-43
4.1211281138038e-44
0
5.0401387483762e-45
3.8135821073821e-44
3.0153263226287e-45
3.8157977792086e-45
2.0135985818591e-45
0
1.3835413877645e-45
1.0986057478271e-45
9.5282694322216e-46
7.7540257600546e-46
1.0055716013898e-45
0
3.4844902840495e-46
7.7598506666886e-46
1.0099951575341e-46
3.4968739121472e-46
5.7286151552056e-47
3.7131679421334e-47
7.6403760460534e-48
0
2.5661646046536e-48
0
1.3710509037992e-48
1.334480013564e-48
5.9139605491082e-49
0
1.1346237848167e-49
4.8427924579643e-49
1.5456161781509e-50
0
1.5689386217561e-50
0
2.1008820103299e-51
1.3638544471841e-50
1.1579824926676e-51
0
1.5337691779042e-52
1.0064769608655e-51
8.9295538026258e-53
0
2.0613517999158e-54
8.7303721155845e-53
2.0680089697458e-54
0
1.1878615902269e-54
0
1.6173457100707e-55
1.0266145989122e-54
9.5189533506201e-56
0
1.732317499922e-56
7.7884235170967e-56
2.3781800266543e-57
1.4948407987303e-56
1.4260420604719e-57
0
1.9413071151841e-58
1.232035527866e-57
1.2176746342883e-58
0
3.8489021179087e-60
1.179230957527e-58
3.849766682808e-60
0
5.2538551406326e-61
0
5.252005633186e-61
0
3.3102811424213e-61
0
5.6647450135524e-62
2.7438182788879e-61
1.0299739766728e-62
4.634793217958e-62
1.802160851221e-63
0
1.8016101470196e-63
0
5.9593549787789e-65
1.7420181284307e-63
5.9575372265333e-65
0
2.4037514626336e-66
5.7171674535047e-65
2.2210421088189e-66
0
6.4105830415143e-67
0
2.6844521870889e-67
0
2.5619593945978e-67
0
4.0946328269505e-68
0
4.0933365271318e-68
0
7.7951512168185e-70
4.0153850698883e-68
5.5950423397396e-70
0
4.1505169491902e-70
0
1.6858588952279e-71
3.981931099832e-70
1.5561576600417e-71
0
4.0702662569625e-72
0
1.6117350905122e-72
0
1.3298302881468e-72
0
2.0705611296658e-73
0
2.069860641519e-73
0
2.4533773229471e-74
0
1.8854708305195e-74
0
0
0
0
0
0
0
0
0
0
0
0
0
0
0
0
3.2946973308381e-33
1.6507339244593e-33
1.9851937861494e-31
1.0080320894564e-31
5.7810873380864e-30
2.9825398657365e-30
1.0775155629985e-28
5.6595194946956e-29
1.4455862136535e-27
7.7522831657463e-28
1.4457644149633e-26
7.9499178105599e-27
1.113699996443e-25
6.255375761039e-26
7.6917181486596e-25
4.3368403357607e-25
5.6593845952705e-24
3.1637632504069e-24
4.2827413677462e-23
2.3918998553614e-23
2.9237295000552e-22
1.6589878180226e-22
1.6998653993906e-21
9.8963075631388e-22
8.2289274149247e-21
4.9477707735113e-21
3.2882774461615e-20
2.0542822297151e-20
1.0875162774607e-19
7.0882480726518e-20
3.0039561971309e-19
2.0472608446844e-19
7.0352885053869e-19
5.0125448238775e-19
1.4285717793871e-18
1.0604793698703e-18
2.5857093957382e-18
1.9881628663662e-18
4.2809776245528e-18
3.3911901633008e-18
6.5669489107203e-18
5.3592547829983e-18
9.184828715505e-18
7.8281498501232e-18
1.1066599749528e-17
1.0165810499286e-17
1.1434157447093e-17
1.120557619836e-17
1.1383016634969e-17
1.1226204011075e-17
1.0675568500899e-17
1.0811955378608e-17
9.0508839138448e-18
9.6513484237688e-18
6.5593018992095e-18
7.5997453881433e-18
3.8567049578319e-18
5.0304857046178e-18
1.7471488644971e-18
2.6657370732894e-18
6.0067854486818e-19
1.0948944062932e-18
1.6822848391218e-19
3.5577350780695e-19
4.4133993065567e-20
1.00216699287e-19
1.2054749909855e-20
2.7368985400277e-20
3.5266914953534e-21
7.7447544129745e-21
1.0930625572747e-21
2.3112909318724e-21
3.5235395962842e-22
7.2307245038424e-22
1.1613645697238e-22
2.3389507083591e-22
3.8544550515293e-23
7.7043644389032e-23
1.2706916173772e-23
2.5466627426454e-23
4.1143431505401e-24
8.339244884231e-24
1.2980437045708e-24
2.6777370093592e-24
3.975630960388e-25
8.3760572122471e-25
1.1830372275444e-25
2.546518569483e-25
3.4343941840898e-26
7.5371144233932e-26
9.7771597585416e-27
2.1805813309755e-26
2.7411804927779e-27
6.194135194815e-27
7.5882411025672e-28
1.7335251449278e-27
2.0766433979293e-28
4.7900626608678e-28
5.6219286252315e-29
1.3083564943393e-28
1.506497862996e-29
3.5352704531715e-29
3.9985812021187e-30
9.4566193942158e-30
1.0519698801876e-30
2.5059600475214e-30
2.7449901735163e-31
6.5831437376735e-31
7.1081881079313e-32
1.7154537064137e-31
1.8275269903808e-32
4.4365149711672e-32
4.6669944117042e-33
1.1392625777971e-32
1.1842509157087e-33
2.9060576430078e-33
2.9869854530627e-34
7.3662328246137e-34
7.4910432717867e-35
1.8560732737702e-34
1.8685137329435e-35
4.6503733415613e-35
4.6367046580308e-36
1.1589013216764e-35
1.1449506421771e-36
2.8733175682451e-36
2.8140066199991e-37
7.0892916204322e-37
6.8851595050049e-38
1.741003182177e-37
1.6773991506089e-38
4.256592708284e-38
4.0697661106639e-39
1.036268539501e-38
9.8352384705141e-40
2.5125014230144e-39
2.3678257740555e-40
6.0678522570003e-40
5.6797162775292e-41
1.4599048014243e-40
1.3576076431847e-41
3.4997484991251e-41
3.2340573520404e-42
8.3604548364507e-42
7.6788952842847e-43
1.9904817632974e-42
1.817507062155e-43
4.7235980960583e-43
4.2887010292805e-44
1.1174351881014e-43
1.0089999639054e-44
2.635432566281e-44
2.3670819433897e-45
6.1973297493351e-45
5.5377209216948e-46
1.453185570277e-45
1.2920559375727e-46
3.3981286472469e-46
3.0067617590107e-47
7.9249644614255e-47
6.9793889668529e-48
1.8434367775622e-47
1.6160994420494e-48
4.2772587250643e-48
3.7331990912355e-49
9.9001203609171e-49
8.60370094457e-50
2.2860353846246e-49
1.9783717963935e-50
5.2664915381603e-50
4.5391565479759e-51
1.2105505532875e-50
1.0392294444535e-51
2.7764743600717e-51
2.3743628259962e-52
6.3544282885727e-52
5.4129687066681e-53
1.4513619951614e-52
1.2335129414051e-53
3.3066689101563e-53
2.7583169858171e-54
7.5568212296566e-54
7.2590635685092e-55
1.630022652829e-54
5.5619234961254e-55
0
0
0
0
0
0
0
0
0
0
0
0
3.0356672320731e-33
1.5122526326085e-33
2.6641028950836e-31
1.3266777550683e-31
1.0568489433661e-29
5.2948251690238e-30
2.6175004395623e-28
1.324600938519e-28
4.5850136991323e-27
2.3512673134472e-27
6.0896144680956e-26
3.1753098304142e-26
6.2831138559208e-25
3.3468513267339e-25
5.1000441722586e-24
2.7857239279284e-24
3.3719082090475e-23
1.8866111867132e-23
1.926108157585e-22
1.0850825527715e-22
1.141244389667e-21
6.3007823676102e-22
7.9593836592423e-21
4.3093212066301e-21
5.082323123594e-20
2.8035122406517e-20
2.7208951798089e-19
1.5671529352694e-19
1.2441751993446e-18
7.4491713803289e-19
4.5804811842333e-18
2.8869370480192e-18
1.3057947502447e-17
8.7808199611296e-18
2.909631977696e-17
2.0909674652057e-17
5.3081387604373e-17
4.0246304001956e-17
8.5296007163894e-17
6.6685487965798e-17
1.2936221840568e-16
1.0222274009037e-16
1.9122948217906e-16
1.5194951238882e-16
2.6995678482e-16
2.1954288124115e-16
3.3750568691433e-16
2.9314160329094e-16
3.5620918645104e-16
3.3484596528259e-16
3.5665488791494e-16
3.3916787270629e-16
3.3761570411696e-16
3.2903942416788e-16
2.9070428594288e-16
2.975754720032e-16
2.1449323653989e-16
2.381623868918e-16
1.2905771428599e-16
1.6080416096709e-16
6.0412222266271e-17
8.7480414910768e-17
2.1803219297264e-17
3.732691585163e-17
6.5106993096336e-18
1.2796923317774e-17
1.8324466853913e-18
3.8481907044759e-18
5.3644545531394e-19
1.1264537031624e-18
1.6805726195228e-19
3.4191698923e-19
5.5770657982224e-20
1.0950712461988e-19
1.9218637935652e-20
3.6742228131992e-20
6.7454926076566e-21
1.2710094231717e-20
2.3724314002786e-21
4.4567617221658e-21
8.2532294344329e-22
1.5608205845565e-21
2.8110384140997e-22
5.3942378119909e-22
9.300772674258e-23
1.8221796584595e-22
2.9750821755082e-23
5.9745709578776e-23
9.194389500443e-24
1.8948140110914e-23
2.7549218648506e-24
5.8162654188073e-24
8.0505061921483e-25
1.7349202091284e-24
2.3078039516909e-25
5.0563459077028e-25
6.5167042762735e-26
1.4469263973837e-25
1.8166882359298e-26
4.079211344225e-26
5.0051497677554e-27
1.1351969832259e-26
1.363727665296e-27
3.1218612089714e-27
3.6771021544587e-28
8.4909226084865e-28
9.8191588271574e-29
2.285739614801e-28
2.5986687345514e-29
6.0947593796985e-29
6.8205280271058e-30
1.6108280793855e-29
1.7763021211824e-30
4.222540455491e-30
4.5925692145925e-31
1.0984087176959e-30
1.1792867415326e-31
2.8367714656903e-31
3.0086737780162e-32
7.2767532042192e-32
7.6291288410275e-33
1.8546796657536e-32
1.9233469739529e-33
4.698595464221e-33
4.8222496760121e-34
1.183509036263e-33
1.2027265409389e-34
2.9648593326961e-34
2.9848024985241e-35
7.3888992508925e-35
7.3721445608433e-36
1.8323290133482e-35
1.8125594490557e-36
4.5224314800857e-36
4.4370554973386e-37
1.1111555158598e-36
1.0816324375862e-37
2.7182850094071e-37
2.6261496903706e-38
6.6223107165633e-38
6.3515836597312e-39
1.6069056915153e-38
1.5304909996381e-39
3.8842267485559e-39
3.6747279110034e-40
9.3543768161514e-40
8.792675322933e-41
2.2448124151174e-40
2.0968664903915e-41
5.368529891429e-41
4.9845253678756e-42
1.2796545558946e-41
1.1812089134018e-42
3.0404725203131e-42
2.7907664432362e-43
7.2018906532882e-43
6.5743943820066e-44
1.7007976943157e-43
1.5444110593197e-44
4.0049834253056e-44
3.6181144916113e-45
9.4043714496918e-45
8.4537505492379e-46
2.2023018944737e-45
1.9701440386558e-46
5.1437177008468e-46
4.5799424817214e-47
1.1982957586384e-46
1.0621016987702e-47
2.784641882366e-47
2.4572272674219e-48
6.4554037665222e-48
5.671860285785e-49
1.4929837328265e-48
1.3062690689807e-49
3.4450226787077e-49
3.0019152657792e-50
7.9315650511548e-50
6.8830032392188e-51
1.8222216375164e-50
1.5773885618942e-51
4.1756145842193e-51
3.5468256972019e-52
9.5969713860437e-52
9.3906144684755e-53
2.081392318881e-52
7.152490615618e-53
0
0
0
0
0
0
0
0
0
0
1.331989436664e-33
6.5805131906932e-34
1.6218468841784e-31
7.9637353189288e-32
8.2593994421617e-30
4.0547752132383e-30
2.5174916819374e-28
1.2404947987773e-28
5.3504171456389e-27
2.6535140784759e-27
8.5935394609435e-26
4.3006430077884e-26
1.0924330556928e-24
5.5330173225042e-25
1.1237004110385e-23
5.7833245709097e-24
9.4521492077476e-23
4.9677392585626e-23
6.5287174671301e-22
3.5257048108759e-22
3.6701276114815e-21
2.0341875218307e-21
1.8338329341666e-20
1.0256122013483e-20
9.1836253187897e-20
4.9524744505195e-20
6.3427264053658e-19
3.2183837210279e-19
5.9953516373216e-18
3.0063803684072e-18
3.423435923842e-17
1.8939771206476e-17
1.4607766783535e-16
8.8862014201774e-17
4.9866594355036e-16
3.3090415366867e-16
1.0279393807892e-15
7.978907446622e-16
1.3595013838467e-15
1.1992925391641e-15
1.5497260628987e-15
1.4062339241482e-15
1.7936717144579e-15
1.588840840761e-15
2.2957689883188e-15
1.9148385717391e-15
3.1999732028242e-15
2.5487759925293e-15
4.3430732641986e-15
3.4983160569393e-15
4.9920646249981e-15
4.3614028586218e-15
5.0471638358784e-15
4.6142969954515e-15
4.8928283259845e-15
4.5423512584286e-15
4.3157798707232e-15
4.1980818562917e-15
3.2450363635306e-15
3.428439880124e-15
1.9751759883561e-15
2.3465866724347e-15
9.3617942733236e-16
1.2901007467682e-15
3.488381595976e-16
5.6198704308883e-16
1.1095165751315e-16
2.0160399071459e-16
3.3964750165833e-17
6.5102971463429e-17
1.0848869095755e-17
2.0740235591611e-17
3.6910458491371e-18
6.8642261145693e-18
1.3219784818181e-18
2.3885098548393e-18
4.8826119925917e-19
8.6524400675209e-19
1.8240663196103e-19
3.2075431847192e-19
6.7926942164202e-20
1.1971943549528e-19
2.4957073170364e-20
4.4430640911697e-20
8.9720595168929e-21
1.6239284925897e-20
3.1308495141594e-21
5.7959174416412e-21
1.0531299460052e-21
2.0041055705831e-21
3.4028253235411e-22
6.6751323041597e-22
1.0579903407554e-22
2.1381567230058e-22
3.1847282991269e-23
6.6070285184322e-23
9.3527896050678e-24
1.981823459243e-23
2.6967161519868e-24
5.809359270393e-24
7.6631852804465e-25
1.672823040092e-24
2.1499912859278e-25
4.7467987339979e-25
5.9603857852761e-26
1.3295572331172e-25
1.6338120024843e-26
3.6795505268395e-26
4.4313973149662e-27
1.0069644686842e-26
1.1902423980036e-27
2.7271800567189e-27
3.1681837677465e-28
7.3153229558682e-28
8.3626869116931e-29
1.9448301320878e-28
2.190182024145e-29
5.1277486292604e-29
5.6940444069083e-30
1.3415325206524e-29
1.4701211320915e-30
3.4842548429308e-30
3.7709004978037e-31
8.9874466663993e-31
9.612793319001e-32
2.3032781716237e-31
2.4361607412908e-32
5.8666584221985e-32
6.1396148156244e-33
1.4856166524548e-32
1.5391165436817e-33
3.7412743948528e-33
3.8388755652176e-34
9.372254166684e-34
9.5287812435085e-35
2.336070155147e-34
2.3543049553847e-35
5.7948540128326e-35
5.7911488995641e-36
1.4308829199791e-35
1.4184762209548e-36
3.517663938852e-36
3.4602540730309e-37
8.6113460566583e-37
8.4079659806794e-38
2.0995523101358e-37
2.0353305500629e-38
5.0990473624168e-38
4.9090789095879e-39
1.2337338041712e-38
1.1798926031348e-39
2.9742904973053e-39
2.826281047609e-40
7.1454670553648e-40
6.7478985417726e-41
1.7108648034007e-40
1.6060134476318e-41
4.0830817882083e-41
3.8106736043783e-42
9.713919068223e-42
9.0150548422926e-43
2.3039817044985e-42
2.1266152722248e-43
5.4485817913794e-43
5.0026630120299e-44
1.2848351025484e-43
1.1736571750477e-44
3.0214006386286e-44
2.7462691927602e-45
7.0860121564962e-45
6.4097233914513e-46
1.6575323621444e-45
1.4923158791911e-46
3.8674165249292e-46
3.4660681166599e-47
9.0013865140425e-47
8.0314855051834e-48
2.0900510072783e-47
1.8568224830473e-48
4.8416064345359e-48
4.2826971459286e-49
1.1190625946658e-48
9.8720056760914e-50
2.5796149344612e-49
2.2324211353494e-50
5.9636370458066e-50
5.9475071645292e-51
1.3006299222121e-50
4.5025179894849e-51
0
0
0
0
0
0
0
0
0
0
4.1695604944143e-32
1.9972417366814e-32
3.5342187485449e-30
1.6937703186879e-30
1.430577191861e-28
6.8750335347154e-29
3.7128903845853e-27
1.7925287225238e-27
6.9948620890052e-26
3.3970367060428e-26
1.0254822780497e-24
5.0153451757968e-25
1.2219733624011e-23
6.0275617332917e-24
1.2129817159302e-22
6.0497744953319e-23
1.0157914514429e-21
5.1430950333553e-22
7.1907553610256e-21
3.718844820842e-21
4.2350947265384e-20
2.252164236929e-20
2.0970309802983e-19
1.1513064120039e-19
8.8409160492967e-19
4.8607667423431e-19
4.3340855307601e-18
2.2390474866846e-18
2.949317507454e-17
1.3565464120057e-17
3.1574665691249e-16
1.3424775288733e-16
8.5094065227668e-15
3.1902984479254e-15
4.765650782935e-14
2.4561697091123e-14
8.5635340135809e-14
7.4215228194702e-14
8.7602225272149e-14
8.8282002365337e-14
6.3361595705084e-14
8.2785379261971e-14
3.9345187676763e-14
5.6518679022175e-14
2.9919712561931e-14
3.4410975898843e-14
2.9691767784061e-14
3.0222979399085e-14
3.486799231438e-14
3.1231166543898e-14
4.101395429362e-14
3.5146066440302e-14
4.2828629865414e-14
3.8187652798488e-14
4.2672001504763e-14
3.7927547785587e-14
3.8222901007705e-14
3.5398280672587e-14
2.8743750923059e-14
2.8936312171123e-14
1.7305261176905e-14
1.9598257684153e-14
8.2147878641096e-15
1.0696732846164e-14
3.1727615841895e-15
4.7355641600947e-15
1.0896209699941e-15
1.7928441209663e-15
3.6898471382061e-16
6.3192060358292e-16
1.3073846926345e-16
2.2324310551665e-16
4.8950330310629e-17
8.1954755059766e-17
1.9084476215558e-17
3.1380632659149e-17
7.590817163991e-18
1.2371964639611e-17
3.0275322764938e-18
4.9389602214777e-18
1.1972931932154e-18
1.9694749046241e-18
4.6626588443228e-19
7.7744993246851e-19
1.7769795035764e-19
3.0178842884528e-19
6.5748001591954e-20
1.1437004378375e-19
2.3407706534735e-20
4.195552917175e-20
7.9659776116556e-21
1.477892448038e-20
2.5885160621817e-21
4.9766659835343e-21
8.0728744969207e-22
1.6038542105167e-21
2.4380102511812e-22
4.9770491295137e-22
7.1927500545404e-23
1.4995173017799e-22
2.0857494615535e-23
4.4189350804055e-23
5.9635243075506e-24
1.2800787179508e-23
1.6833903305073e-24
3.6550260312418e-24
4.6946342618369e-25
1.0301071174798e-24
1.2943477961661e-25
2.8681606125705e-25
3.5308745788477e-26
7.8961123976496e-26
9.5379055230454e-27
2.151171023764e-26
2.5532022707777e-27
5.8040750224455e-27
6.7772490284463e-28
1.5520081459816e-27
1.7848115032092e-28
4.1155029146767e-28
4.6656071086174e-29
1.082805155862e-28
1.211117291035e-29
2.8280064661051e-29
3.1231630130108e-30
7.334941522856e-30
8.0036198950094e-31
1.8900147301015e-30
2.0389234004362e-31
4.8399054820841e-31
5.1649396303242e-32
1.2321091664598e-31
1.3013559964221e-32
3.1190889959481e-32
3.2621268321645e-33
7.8539456661401e-33
8.1372656897908e-34
1.9675949006383e-33
2.0203228896171e-34
4.9053403605164e-34
4.993589153353e-35
1.2172478139909e-34
1.2289486295757e-35
3.0071112080831e-35
3.0120165342056e-36
7.3970572995977e-36
7.3527978160892e-37
1.8120933988094e-36
1.7880682499201e-37
4.4216318992951e-37
4.3322377870206e-38
1.0748032332914e-37
1.0459094219925e-38
2.6030332664684e-38
2.5164191008335e-39
6.2819030718787e-39
6.0343349752459e-40
1.51083338593e-39
1.4423843634445e-40
3.6216441382717e-40
3.4370253961243e-41
8.653784314937e-41
8.1653951695498e-42
2.0613991972737e-41
1.9342150649032e-42
4.8957152689781e-42
4.5688162632335e-43
1.1593332136301e-42
1.0762430824013e-43
2.7376410309442e-43
2.5284792134977e-44
6.4469891773375e-44
5.9249358875805e-45
1.5142024757976e-44
1.384887834183e-45
3.5472371562877e-45
3.2291005301817e-46
8.2890946550594e-46
7.5113750270657e-47
1.9322461361218e-46
1.7429569981891e-47
4.4937099812667e-47
4.0416029927436e-48
1.0421732644732e-47
9.1926479114047e-49
2.4237738404169e-48
2.4647113594969e-49
5.3161111145794e-49
1.8543336814257e-49
0
0
0
0
0
0
0
0
1.3732724950383e-45
3.9240242214074e-46
6.1857771967768e-31
2.8625540705016e-31
4.5182061083413e-29
2.1011866005224e-29
1.6216987912987e-27
7.5855119111776e-28
3.8079980399837e-26
1.7929616627725e-26
6.5798479250095e-25
3.1203290347011e-25
8.9324460414804e-24
4.2673577164853e-24
9.9521553312786e-23
4.7904274690284e-23
9.3597475861915e-22
4.5417746693731e-22
7.5782056667479e-21
3.7141604017628e-21
5.3094939783761e-20
2.6394897140801e-20
3.2000089749411e-19
1.6246021562583e-19
1.6417726333853e-18
8.5956855868622e-19
6.961024673826e-18
3.7624939667506e-18
2.7068374936023e-17
1.4595399498666e-17
1.131918304966e-16
5.527018782189e-17
8.6047448742325e-16
3.4556945703747e-16
1.3770420936418e-14
3.8233523102635e-15
1.4153480971547e-13
3.7850574554783e-14
1.7750339169597e-12
5.2805502750643e-13
3.3574339021736e-12
2.4073163184562e-12
2.9004632628347e-12
3.5735378254014e-12
1.7367492663075e-12
3.0248276591952e-12
9.4714813218339e-13
1.8518739336688e-12
5.2128129642874e-13
1.0019048285689e-12
3.4166290748786e-13
5.559643761397e-13
2.9059721461229e-13
3.7957070132871e-13
2.7377587694562e-13
3.1275462176249e-13
2.5741558686207e-13
2.7017089818638e-13
2.2078812074479e-13
2.2462442819563e-13
1.5936442503876e-13
1.6656248288531e-13
9.2507537817432e-14
1.0372531711677e-13
4.3403562757712e-14
5.3415041597795e-14
1.7469878570227e-14
2.3575632852653e-14
6.6246909626974e-15
9.5333552876797e-15
2.5499442820197e-15
3.7711650062259e-15
1.0258247557427e-15
1.5212380147383e-15
4.2982451593291e-16
6.3427179680908e-16
1.844083286979e-16
2.7168206866187e-16
7.9557322947284e-17
1.1784810309332e-16
3.4075651111005e-17
5.1065217578723e-17
1.4396188628031e-17
2.1908158068924e-17
5.9793830801665e-18
9.2623764241326e-18
2.431200770254e-18
3.8448478761529e-18
9.6035448317019e-19
1.558102789146e-18
3.6477395063624e-19
6.110839203103e-19
1.3195573498715e-19
2.2966538118797e-19
4.524602773959e-20
8.2089737169727e-20
1.474362233207e-20
2.7850153978018e-20
4.6063751604223e-21
9.0098833419473e-21
1.3953410065919e-21
2.8048772502302e-21
4.1358028452252e-22
8.4853624274988e-22
1.2060775845142e-22
2.5135061644758e-22
3.4688170248598e-23
7.3233824386538e-23
9.8489193214308e-24
2.1035393358954e-23
2.7622815398553e-24
5.9635450268218e-24
7.6584958710919e-25
1.6701219499623e-24
2.1008085779548e-25
4.6243759879451e-25
5.7063470655991e-26
1.2670434476992e-25
1.5359434635315e-26
3.4380195669732e-26
4.0992677920593e-27
9.2449848913379e-27
1.085382552891e-27
2.4651676721902e-27
2.8523967486857e-28
6.5216519542525e-28
7.4434206294224e-29
1.7125490546124e-28
1.929472869551e-29
4.4656619499131e-29
4.9700532239189e-30
1.1567834081665e-29
1.2725617808897e-30
2.9777792414035e-30
3.2398095786168e-31
7.619820490561e-31
8.2035098307625e-32
1.9388073031024e-31
2.0664606368129e-32
4.9065678520661e-32
5.1796593573345e-33
1.2353235774099e-32
1.2921531123365e-33
3.0948658943311e-33
3.2088616441414e-34
7.7170679667777e-34
7.9339935825013e-35
1.9155651322565e-34
1.9534882211537e-35
4.7342862769362e-35
4.7904605503837e-36
1.1651952778304e-35
1.170189719539e-36
2.8562640744483e-36
2.8477957517452e-37
6.9745778774321e-37
6.9054548770978e-38
1.6967503702012e-37
1.6686322320628e-38
4.1129680374738e-38
4.018507219241e-39
9.9353611262724e-39
9.6461216223147e-40
2.3919574800378e-39
2.3081818484326e-40
5.7400074494079e-40
5.506297225452e-41
1.3731114786244e-40
1.3096716178001e-41
3.2747354780764e-41
3.1061114631852e-42
7.7868940571837e-42
7.3461586351146e-43
1.8463260319547e-42
1.7327152762355e-43
4.3656123407717e-43
4.0761590013281e-44
1.0294597237158e-43
9.5645209762736e-45
2.4212200448458e-44
2.2387218421026e-45
5.6800164540677e-45
5.2266328181226e-46
1.3292474315342e-45
1.2192745286474e-46
3.1017703899366e-46
2.7895534925291e-47
7.2575903710149e-47
7.527816038964e-48
1.6009441060968e-47
5.6276603725028e-48
0
0
0
0
0
0
0
0
3.5674211648825e-46
3.5660305649987e-47
5.7569205343434e-30
2.5668281344789e-30
3.9007780674223e-28
1.7532834514321e-28
1.3088816087831e-26
5.9315469977832e-27
2.8902050770961e-25
1.3209607375334e-25
4.714364568261e-24
2.1736884126292e-24
6.0487582125841e-23
2.8137869019494e-23
6.3665520176028e-22
2.9872598788298e-22
5.6614240321373e-21
2.6779677987949e-21
4.3579102776188e-20
2.0771441554673e-20
2.9470051113709e-19
1.4173909085043e-19
1.753911234287e-18
8.5491753329352e-19
9.1082656796083e-18
4.5346902125173e-18
4.0534305300464e-17
2.0809975377662e-17
1.5454520754059e-16
8.2629051324655e-17
4.9841070940227e-16
2.6471520668931e-16
1.9802807121329e-15
8.9461734744166e-16
1.3561382367349e-14
3.9530496792082e-15
1.2956648863737e-13
3.2820889743265e-14
1.5077737752625e-12
2.6212696903177e-13
1.3430954996679e-11
2.9047755324713e-12
8.4479954914983e-11
3.6437897931199e-11
7.792507454605e-11
9.392384356745e-11
4.1926402297186e-11
8.0260555654962e-11
1.9366099793846e-11
4.3917567622148e-11
8.3204013498253e-12
1.9749821004621e-11
4.4425708393615e-12
9.3895967093407e-12
2.928856118554e-12
5.4484855808081e-12
2.0564573472497e-12
3.5493732240609e-12
1.3553781016658e-12
2.2368158109585e-12
7.5477107646949e-13
1.2205553702768e-12
3.4407878945741e-13
5.4113372006188e-13
1.4091949735131e-13
2.0379297568389e-13
5.8286212806068e-14
7.6344918310409e-14
2.5297355173098e-14
3.1567430623784e-14
1.1498069085972e-14
1.4218715547852e-14
5.400624281443e-15
6.7369378816161e-15
2.5797663270204e-15
3.2689804479719e-15
1.2334816950695e-15
1.5944586393558e-15
5.8331574863053e-16
7.7156912985044e-16
2.711399499006e-16
3.6750056290601e-16
1.236556920468e-16
1.7170851098315e-16
5.5304597023889e-17
7.8637168187051e-17
2.4199036025649e-17
3.5264294287044e-17
1.0292044968031e-17
1.5425897897761e-17
4.2099216312398e-18
6.5302641329677e-18
1.6364628606963e-18
2.64625880441e-18
5.9914485910434e-19
1.0157109960769e-18
2.0628147940355e-19
3.670774929347e-19
6.72563748698e-20
1.2509969924849e-19
2.1029510336863e-20
4.0549809133809e-20
6.3873526765333e-21
1.2651648326258e-20
1.9016856263542e-21
3.8412345196438e-21
5.575427003035e-22
1.1433300328522e-21
1.6124456967736e-22
3.3493092622493e-22
4.6030536561683e-23
9.674011160532e-23
1.29786398475e-23
2.7577337994196e-23
3.6173304749498e-24
7.7653363526975e-24
9.9749706040324e-25
2.1617960303505e-24
2.7237097352415e-25
5.9551763565308e-25
7.3696233841312e-26
1.6245875573843e-25
1.9770939407712e-26
4.3919514575475e-26
5.2618064686471e-27
1.1773208899279e-26
1.3898617465943e-27
3.130985528322e-27
3.6452033655862e-28
8.2645317815843e-28
9.4962630555081e-29
2.166151807126e-28
2.4581976549959e-29
5.639731524059e-29
6.3248880399603e-30
1.4590742402447e-29
1.6180353401841e-30
3.7521755033273e-30
4.1166041164204e-31
9.5940401717412e-31
1.0418707492461e-31
2.4397663728414e-31
2.6236856939195e-32
6.1720574155601e-32
6.5754473623472e-33
1.5536219767721e-32
1.6403636289102e-33
3.892117478701e-33
4.0741423236171e-34
9.7059214748276e-34
1.007599855751e-34
2.4097784176828e-34
2.4817932975091e-35
5.9577318950937e-35