/*--------------------------------*- C++ -*----------------------------------*\
  =========                 |
  \\      /  F ield         | OpenFOAM: The Open Source CFD Toolbox
   \\    /   O peration     | Website:  https://openfoam.org
    \\  /    A nd           | Version:  7
     \\/     M anipulation  |
\*---------------------------------------------------------------------------*/
FoamFile
{
    version     2.0;
    format      ascii;
    class       volScalarField;
    location    "2.7";
    object      alpha.water;
}
// * * * * * * * * * * * * * * * * * * * * * * * * * * * * * * * * * * * * * //

dimensions      [0 0 0 0 0 0 0];

internalField   nonuniform List<scalar> 
6000
(
0
0
0
0
0
0
0
0
0
0
0
0
0
0
0
0
0
0
0
0
0
0
0
0
0
0
0
0
0
0
0
0
0
0
0
0
0
0
0
0
0
0
0
0
0
0
0
0
0
0
0
0
0
0
0
0
0
0
0
0
0
0
0
0
0
0
0
0
0
0
0
0
0
0
0
0
0
0
0
0
0
0
0
0
0
0
0
0
0
0
0
0
0
0
0
0
0
0
0
0
0
0
0
0
0
0
0
0
0
0
0
0
0
0
0
0
0
0
0
0
0
0
0
0
0
0
0
0
0
0
0
0
0
0
0
0
0
0
0
0
0
0
0
0
0
0
0
0
0
0
0
0
0
0
0
0
0
0
0
0
0
0
0
0
0
0
0
0
0
0
0
0
0
0
0
0
0
0
0
0
0
0
0
0
0
0
0
0
0
0
0
0
0
0
0
0
0
0
0
0
0
0
0
0
0
0
0
0
0
0
0
0
0
0
0
0
0
0
0
0
0
0
0
0
0
0
0
0
0
0
0
0
0
0
0
0
0
0
0
0
0
0
0
0
0
0
0
0
0
0
0
0
0
0
0
0
0
0
0
0
0
0
0
0
0
0
0
0
0
0
0
0
0
0
0
0
0
0
0
0
0
0
0
0
0
0
0
0
0
0
0
0
0
0
0
0
0
0
0
0
0
0
0
0
0
0
0
0
0
0
0
0
0
0
0
0
0
0
0
0
0
0
0
0
0
0
0
0
0
0
0
0
0
0
0
0
0
0
0
0
0
0
0
0
0
0
0
0
0
0
0
0
0
0
0
0
0
0
0
0
0
0
0
0
0
0
0
0
0
0
0
0
0
0
0
0
0
0
0
0
0
0
0
0
0
0
0
0
0
0
0
0
0
0
0
0
0
0
0
0
0
0
0
0
0
0
0
0
0
3.5922751171124e-70
3.1225056366794e-68
1.3465591047811e-66
3.8547426604449e-65
8.2385679696288e-64
1.4022198524751e-62
1.9794345115565e-61
2.383885840975e-60
2.5000374547718e-59
2.3194408983233e-58
1.9273202429446e-57
1.4488644500913e-56
9.9356335165556e-56
6.2585483096678e-55
3.6427085777102e-54
1.969061647802e-53
9.9289559589453e-53
4.688597292355e-52
2.0805287847595e-51
8.7021457213541e-51
3.440282846305e-50
1.2887036592745e-49
4.5843453823708e-49
1.551865965669e-48
5.008338372757e-48
1.5436141855504e-47
4.5506492357277e-47
1.2850753504468e-46
3.4808792442004e-46
9.0551722911717e-46
2.264939744604e-45
5.4530545575422e-45
1.2649867922238e-44
2.8301362891102e-44
6.1121034319066e-44
1.2752615384328e-43
2.57262030541e-43
5.0216023243508e-43
9.4908195314569e-43
1.7379936555558e-42
3.0856624346532e-42
5.3145056050754e-42
8.8845813736015e-42
1.4424596853768e-41
2.2755414132495e-41
3.4897234463012e-41
5.2050328787099e-41
7.5539440081211e-41
1.0671477111944e-40
1.4680825793922e-40
1.9675163672778e-40
2.5697308636942e-40
3.2719824856515e-40
4.0628842497906e-40
4.921506475468e-40
5.8174957996539e-40
6.7123871141484e-40
7.5621313319397e-40
8.3206268231776e-40
8.9438856500511e-40
9.3942866486701e-40
9.6443668103118e-40
9.6795850111623e-40
9.4996954248025e-40
9.1185472250547e-40
8.5623732542394e-40
7.8668565164526e-40
7.0734246802058e-40
6.2252856252611e-40
5.3637244279567e-40
4.5250684150507e-40
3.7385752301008e-40
3.025363855534e-40
2.3983098694774e-40
1.8627399765972e-40
1.4176829209382e-40
1.0574123988629e-40
7.7304379287462e-41
5.5400308831546e-41
3.8924269540209e-41
2.6815053789176e-41
1.8114845859758e-41
1.2001463667937e-41
7.7986833066826e-42
4.9709332130312e-42
3.1083120849277e-42
1.9068649997374e-42
1.1477859440109e-42
6.7792672277033e-43
3.9293353682284e-43
4.9302194220885e-43
0
0
0
0
0
0
0
-3.324870229128e-60
-2.7220829928596e-58
-1.1079979157062e-56
-2.9892932215023e-55
-6.012803966584e-54
-9.6165347807825e-53
-1.2736109971567e-51
-1.4363775257767e-50
-1.4078514199636e-49
-1.2178995709492e-48
-9.4118967214029e-48
-6.5605828965597e-47
-4.1572210488283e-46
-2.410109709233e-45
-1.2850495630283e-44
-6.3285501451371e-44
-2.8884370154826e-43
-1.2249201121216e-42
-4.8347830980673e-42
-1.777390433116e-41
-6.0827087760324e-41
-1.9334095991523e-40
-5.6786469473271e-40
-1.5255787114172e-39
-3.6714584657332e-39
-7.5402728081324e-39
-1.1334710898605e-38
-1.8848326811269e-39
7.4812819662349e-38
3.9829025221464e-37
1.4953948287562e-36
4.7779989877724e-36
1.3761348229699e-35
3.6659035394008e-35
9.1597891033499e-35
2.1652884735596e-34
4.8706209539335e-34
1.0468680867604e-33
2.1567330626964e-33
4.2693669669473e-33
8.1368766551302e-33
1.4955447145178e-32
2.6546183122498e-32
4.5561531673593e-32
7.5693323363595e-32
1.2184263938375e-31
1.9019648981512e-31
2.8814627047837e-31
4.2398358170016e-31
6.0632513407442e-31
8.4325269207599e-31
1.1412047909757e-30
1.5037176478944e-30
1.9301717464975e-30
2.4147435040327e-30
2.9457740896897e-30
3.5057401106989e-30
4.0719417358632e-30
4.6179209480084e-30
5.1155032586858e-30
5.5372435009598e-30
5.8589739636157e-30
6.0621196549028e-30
6.1354694638796e-30
6.0761698015012e-30
5.8898239660476e-30
5.589713295098e-30
5.1952801396886e-30
4.7301061551134e-30
4.2196684129006e-30
3.6891563922968e-30
3.1615906124556e-30
2.656411323023e-30
2.188619653911e-30
1.768470071937e-30
1.4016447262974e-30
1.089794995648e-30
8.3131548062393e-31
6.2221831082691e-31
4.569952774613e-31
3.293848941725e-31
2.3299416596436e-31
1.6175508625991e-31
1.1022007802854e-31
7.3717116465392e-32
4.8394150993053e-32
3.118486341075e-32
1.972552703371e-32
1.2247648933431e-32
7.4648351661242e-33
4.4661560459152e-33
2.6229833877763e-33
3.3892353227946e-33
0
0
0
0
0
0
-1.474938823653e-58
-1.2504573700081e-56
-5.2718633597617e-55
-1.473637781379e-53
-3.0725022360947e-52
-5.0966744510681e-51
-7.0063491186842e-50
-8.2097125328244e-49
-8.3701885361309e-48
-7.5428634125254e-47
-6.0828516784934e-46
-4.4339637675591e-45
-2.9455879148216e-44
-1.795757388009e-43
-1.0105745275266e-42
-5.2762378061689e-42
-2.5669408726359e-41
-1.1681665781208e-40
-4.9894728661932e-40
-2.0061428172772e-39
-7.6134220879827e-39
-2.7336266865332e-38
-9.305987667074e-38
-3.0093819013017e-37
-9.2603225164461e-37
-2.7156508602679e-36
-7.6000136780472e-36
-2.0322345084005e-35
-5.1977332003791e-35
-1.2727193754296e-34
-2.9858123811028e-34
-6.715332268896e-34
-1.4485588349881e-33
-2.9975783545797e-33
-5.9507189205575e-33
-1.1329269655393e-32
-2.0671252196128e-32
-3.6101731825672e-32
-6.0229421889002e-32
-9.5677027653076e-32
-1.4396689402514e-31
-2.034106549762e-31
-2.6562921794364e-31
-3.1040630214956e-31
-2.9880410602396e-31
-1.6487470753893e-31
1.9312452479065e-31
9.2043118985928e-31
2.210187583482e-30
4.3019759998568e-30
7.4719867332683e-30
1.2013061048264e-29
1.820428750792e-29
2.6271845646802e-29
3.6345065409252e-29
4.8413721359151e-29
6.229386029746e-29
7.7609498006492e-29
9.3796064781676e-29
1.1012860638448e-28
1.2577388715312e-28
1.3986140977312e-28
1.5156480561951e-28
1.6018283257047e-28
1.6520885112147e-28
1.6637924833905e-28
1.6369453394214e-28
1.5741108993072e-28
1.4800597657303e-28
1.3612095771622e-28
1.2249437492339e-28
1.0789035318804e-28
9.3034088997003e-29
7.8559981949402e-29
6.4976642538057e-29
5.26499160993e-29
4.1802513356948e-29
3.2526982793356e-29
2.4807757135781e-29
1.8547830180827e-29
1.3596108090221e-29
9.7723937298182e-30
6.8880540870425e-30
4.7614765001678e-30
3.228291690842e-30
2.1469556108797e-30
1.4006274695537e-30
8.9639381191703e-31
5.628291467601e-31
3.4671966997685e-31
2.0956810464654e-31
1.2428980331668e-31
7.2331350064591e-32
9.1485897854224e-32
0
0
0
0
0
4.8965299755916e-60
-5.7702619998334e-57
-5.0147414219478e-55
-2.1171269728086e-53
-5.8939995656433e-52
-1.2215087307015e-50
-2.0124468889012e-49
-2.7467817744376e-48
-3.1953923519468e-47
-3.2346334008718e-46
-2.8945914711342e-45
-2.3185314830283e-44
-1.6790574307792e-43
-1.1085155651412e-42
-6.7182586424367e-42
-3.7598715164995e-41
-1.952965796972e-40
-9.4566262996488e-40
-4.2852425957406e-39
-1.8234472783838e-38
-7.3081181163438e-38
-2.7662301525809e-37
-9.9128215139975e-37
-3.3704235818294e-36
-1.089460099318e-35
-3.3539728218838e-35
-9.8500876161203e-35
-2.7637619374555e-34
-7.4187638441294e-34
-1.9075282158861e-33
-4.7033660384812e-33
-1.1132423421091e-32
-2.5317201079067e-32
-5.5366522564833e-32
-1.1652099533793e-31
-2.3613765109957e-31
-4.6106977401148e-31
-8.6775958013121e-31
-1.5747251561932e-30
-2.7559246472859e-30
-4.6516293515546e-30
-7.5710228480535e-30
-1.1878152882541e-29
-1.7950861714269e-29
-2.6102030843187e-29
-3.6455190863737e-29
-4.8773355532653e-29
-6.2251201435833e-29
-7.5295523894436e-29
-8.533473775819e-29
-8.871101155339e-29
-8.0713517844311e-29
-5.580372822987e-29
-8.061116897531e-30
6.8159079134922e-29
1.7741019853429e-28
3.2228072049254e-28
5.0259819862562e-28
7.1485912506485e-28
9.5201801552391e-28
1.2037240205183e-27
1.4570248133195e-27
1.6974778900523e-27
1.9105349456129e-27
2.0830116932761e-27
2.2044352332946e-27
2.2680785289426e-27
2.2715430803967e-27
2.2168255476988e-27
2.1098864193955e-27
1.9598127027114e-27
1.7777188631926e-27
1.5755533474469e-27
1.364971141257e-27
1.156401134409e-27
9.5838984748922e-28
7.7725108569579e-28
6.1700409493207e-28
4.7954778304963e-28
3.6499887077012e-28
2.721172698328e-28
1.9874969186702e-28
1.4223814170858e-28
9.9758951757801e-29
6.8576456040844e-29
4.621058998607e-29
3.0528299074713e-29
1.9774496028521e-29
1.2560104865877e-29
7.8235882073207e-30
4.779475951001e-30
2.8638480839499e-30
1.6832407568158e-30
9.7050501250751e-31
1.2018767109141e-30
0
0
0
0
0
2.0854439172223e-58
-1.1149706142664e-55
-1.0020700481151e-53
-4.2554499695876e-52
-1.1841763265058e-50
-2.4472321931375e-49
-4.0159749515557e-48
-5.4566655543879e-47
-6.3172611349838e-46
-6.3629862208995e-45
-5.6653127744377e-44
-4.5148738327259e-43
-3.2531754176492e-42
-2.1370740637903e-41
-1.288864240167e-40
-7.1786276493838e-40
-3.7113650321044e-39
-1.7889790215193e-38
-8.0712400172921e-38
-3.4200007465253e-37
-1.3651667178838e-36
-5.1475632371376e-36
-1.8379669214375e-35
-6.2280790561419e-35
-2.0068815231785e-34
-6.1607376597469e-34
-1.8047199257445e-33
-5.052589464404e-33
-1.3537888208208e-32
-3.4759709036078e-32
-8.5624817115835e-32
-2.0257676873418e-31
-4.6076062630344e-31
-1.0084389909106e-30
-2.1255464529961e-30
-4.3178048540159e-30
-8.458996135355e-30
-1.5991797022152e-29
-2.9189328402057e-29
-5.146240517392e-29
-8.7669455782553e-29
-1.4434783010775e-28
-2.2974173292525e-28
-3.5346406219982e-28
-5.2561343055302e-28
-7.5519326565656e-28
-1.0477647269841e-27
-1.4024172276876e-27
-1.8083499824504e-27
-2.2415925360443e-27
-2.6625963838357e-27
-3.0155343972607e-27
-3.230083695945e-27
-3.2261997780641e-27
-2.9219198186996e-27
-2.2436233623681e-27
-1.1375455130857e-27
4.1916984460394e-28
2.4098255477735e-27
4.7737480620401e-27
7.4073681091317e-27
1.0171235726968e-26
1.2902385944466e-26
1.5430502813281e-26
1.7595616245337e-26
1.9264764456979e-26
2.0345229336836e-26
2.0792560220795e-26
2.061250688038e-26
1.9856991049211e-26
1.8615154860037e-26
1.7001169873583e-26
1.5140779292692e-26
1.3158469651446e-26
1.1166792507617e-26
9.2587964042358e-27
7.5039160956989e-27
5.9471171163195e-27
4.6106908156211e-27
3.4978746411292e-27
2.5974290866107e-27
1.8883996651915e-27
1.3444768857176e-27
9.3758545584517e-28
6.4054116386751e-28
4.2878063802195e-28
2.8128208927915e-28
1.8085434020876e-28
1.139860746252e-28
7.0430724979792e-29
4.2668500651909e-29
2.5347263627597e-29
1.4766359728947e-29
8.4366786588722e-30
1.0238576398379e-29
0
0
0
0
4.794737289474e-70
4.4273431745042e-57
-1.4159664962339e-54
-1.3261001528068e-52
-5.6767163648264e-51
-1.5810172342036e-49
-3.2613786204709e-48
-5.3354533763544e-47
-7.2221244535432e-46
-8.3263032601664e-45
-8.3496435196112e-44
-7.400376729255e-43
-5.870358494654e-42
-4.21016961078e-41
-2.752843045599e-40
-1.6525123106885e-39
-9.1615189407046e-39
-4.7148364022808e-38
-2.2623926281843e-37
-1.0161538855632e-36
-4.2867886016685e-36
-1.7037723971173e-35
-6.3971143380762e-35
-2.2746593040424e-34
-7.6766559896381e-34
-2.4639145244865e-33
-7.5348244918763e-33
-2.199083488744e-32
-6.1347557058439e-32
-1.6381399341061e-31
-4.1924206181973e-31
-1.0295706815417e-30
-2.4288548530354e-30
-5.5098548081162e-30
-1.2030294459555e-29
-2.5303555351963e-29
-5.1309378783089e-29
-1.003766972046e-28
-1.895710619199e-28
-3.4583389097714e-28
-6.0973878948759e-28
-1.039430303054e-27
-1.7138986762078e-27
-2.7342729569313e-27
-4.2213968445677e-27
-6.3077584944422e-27
-9.1220809034805e-27
-1.2765724437813e-26
-1.7281587907403e-26
-2.2618318898963e-26
-2.8595024333747e-26
-3.4873750672878e-26
-4.094808982364e-26
-4.6155711751517e-26
-4.9720036266537e-26
-5.0821700222614e-26
-4.8694581753104e-26
-4.2735054871601e-26
-3.260830513204e-26
-1.8333319493919e-26
-3.2949467345245e-28
2.058716088617e-26
4.326227556247e-26
6.6310459540188e-26
8.8257543701906e-26
1.0769712779543e-25
1.2343831839721e-25
1.3462335033542e-25
1.407994601185e-25
1.4193759710942e-25
1.3839952492364e-25
1.3086277008899e-25
1.2021830590947e-25
1.0745808215542e-25
9.3568546745549e-26
7.9442817791033e-26
6.5819212588894e-26
5.3248582081594e-26
4.2088326372935e-26
3.2517730510752e-26
2.4567611214475e-26
1.8157098109476e-26
1.3131333534655e-26
9.2954974387066e-27
6.4423934431307e-27
4.3725104314945e-27
2.9067790992301e-27
1.8930887510435e-27
1.2080379994985e-27
7.5545284493362e-28
4.630330982949e-28
2.7819562069005e-28
1.6386009625451e-28
9.4629756691378e-29
5.3586698599324e-29
6.3776910818321e-29
0
0
0
0
2.0961914117377e-68
6.2464820717201e-56
-1.3260034608269e-53
-1.3060335514623e-51
-5.6462965704055e-50
-1.5752826318119e-48
-3.2454991224335e-47
-5.2953766101797e-46
-7.1433634819858e-45
-8.2036240292485e-44
-8.1924788961148e-43
-7.2296551390808e-42
-5.7094626408855e-41
-4.0762997848013e-40
-2.6531736110663e-39
-1.5853946391291e-38
-8.7491505488652e-38
-4.4820098258015e-37
-2.1408565590308e-36
-9.5719606963245e-36
-4.0198137506481e-35
-1.5904876199311e-34
-5.9451339936008e-34
-2.1045929174171e-33
-7.0715533041773e-33
-2.2598394392336e-32
-6.8810395875304e-32
-1.9997380388694e-31
-5.5552376889502e-31
-1.4772574860579e-30
-3.7652904494978e-30
-9.2097978888355e-30
-2.1641707831954e-29
-4.8906489679091e-29
-1.0638607033627e-28
-2.2295875876402e-28
-4.5054096542783e-28
-8.7848484336998e-28
-1.6539319015193e-27
-3.0085067437485e-27
-5.2902327607432e-27
-8.997107854095e-27
-1.4805465854841e-26
-2.3582516416368e-26
-3.6369223651508e-26
-5.4318313717238e-26
-7.8574268093501e-26
-1.1008900043989e-25
-1.4937902870999e-25
-1.9624640382824e-25
-2.4950372343166e-25
-3.0675888929987e-25
-3.6432264848485e-25
-4.1729667970118e-25
-4.5987947286698e-25
-4.8589247456059e-25
-4.8948509511673e-25
-4.6593299166317e-25
-4.1241018870629e-25
-3.2860184586047e-25
-2.1703688217472e-25
-8.305841693599e-26
6.5591219007068e-26
2.1952696295077e-25
3.6871373893445e-25
5.0354801686651e-25
6.1586679428158e-25
6.9973911384301e-25
7.5193778384948e-25
7.7204748526623e-25
7.6222708954613e-25
7.2669640729341e-25
6.7105165169008e-25
6.01525511155e-25
5.242979801482e-25
4.4493827214326e-25
3.6802382964887e-25
2.9694749505705e-25
2.3389467696837e-25
1.7995269884309e-25
1.3530557431407e-25
9.9468039264551e-26
7.1520138772825e-26
5.0314832705156e-26
3.4643010364946e-26
2.3350806654393e-26
1.5411946788099e-26
9.9626477827224e-27
6.3086592465963e-27
3.9139919271924e-27
2.3795345863839e-27
1.417803219616e-27
8.2803541679125e-28
4.7407078524315e-28
2.6610111889938e-28
3.1075547451424e-28
0
0
0
0
4.553559878357e-67
6.5887017905834e-55
-9.7300178236957e-53
-1.0202051143303e-50
-4.4634596601259e-49
-1.2484869382934e-47
-2.570233496956e-46
-4.1838254807176e-45
-5.6259511641845e-44
-6.4371841312858e-43
-6.4027124600199e-42
-5.6264434431556e-41
-4.424033498212e-40
-3.1445225374065e-39
-2.0374714620086e-38
-1.2119410877546e-37
-6.6575691119853e-37
-3.3948471679979e-36
-1.614090243247e-35
-7.1834231431716e-35
-3.0027963334787e-34
-1.1826054908139e-33
-4.4000941804184e-33
-1.5504610084334e-32
-5.1856378625631e-32
-1.6495377265196e-31
-4.9996457940703e-31
-1.4463141831558e-30
-3.9994584866821e-30
-1.0586915738029e-29
-2.6861699810925e-29
-6.5405701719594e-29
-1.5300246645882e-28
-3.4421384195333e-28
-7.4544968844331e-28
-1.5554303952829e-27
-3.1295241119306e-27
-6.0761357674853e-27
-1.1391948895948e-26
-2.0637865165414e-26
-3.6147463760562e-26
-6.1243890412741e-26
-1.0041999957957e-25
-1.5941345174722e-25
-2.4508937338926e-25
-3.6503674252918e-25
-5.2680043800288e-25
-7.367164880121e-25
-9.9839538765584e-25
-1.3110002166335e-24
-1.6675746792104e-24
-2.0537638195502e-24
-2.4473057835007e-24
-2.8186299360619e-24
-3.1327625395997e-24
-3.3525257700589e-24
-3.4427535171585e-24
-3.3749926703779e-24
-3.1319741806651e-24
-2.7110787194354e-24
-2.1261173548588e-24
-1.4069928560232e-24
-5.9715910293478e-25
2.5081698917105e-25
1.0809476420637e-24
1.8399094659781e-24
2.4826096859732e-24
2.9764428486724e-24
3.3037088116653e-24
3.4620017546333e-24
3.4627223839048e-24
3.3281437532318e-24
3.0876289924338e-24
2.7736398605449e-24
2.4181004900771e-24
2.0495246244433e-24
1.691121086285e-24
1.3599039418566e-24
1.0666834645446e-24
8.1671933315936e-25
6.1078127034785e-25
4.4637545707957e-25
3.1894166113983e-25
2.228885135372e-25
1.5239750576697e-25
1.0197944420125e-25
6.680489806001e-26
4.2851765187703e-26
2.6920745446326e-26
1.6567133705431e-26
9.9890804704759e-27
5.9018787755045e-27
3.4174658797472e-27
1.9396531258207e-27
1.0791994466659e-27
1.2369959787e-27
0
0
0
0
6.566562330439e-66
5.5415904733139e-54
-5.7948146721503e-52
-6.5782773544707e-50
-2.9195311636478e-48
-8.1946705098286e-47
-1.686512926674e-45
-2.7397053528303e-44
-3.6730825794921e-43
-4.1878543157678e-42
-4.1492121669809e-41
-3.6311024508978e-40
-2.8428562321284e-39
-2.0117456502363e-38
-1.2976443354553e-37
-7.6836029592992e-37
-4.2014428342564e-36
-2.1324903158637e-35
-1.0091752071738e-34
-4.4702532042002e-34
-1.8598583131513e-33
-7.2902002671915e-33
-2.6996030629036e-32
-9.4673889732854e-32
-3.1513466627962e-31
-9.9764065798017e-31
-3.0092784710143e-30
-8.6634440743431e-30
-2.3841181181208e-29
-6.280425118517e-29
-1.5857737233687e-28
-3.8424450996472e-28
-8.9448372791723e-28
-2.0025517004113e-27
-4.3157558981197e-27
-8.9614192773561e-27
-1.7943210824581e-26
-3.4670253104496e-26
-6.4692233147068e-26
-1.1664498366034e-25
-2.0335537517659e-25
-3.4296864141291e-25
-5.5985084151724e-25
-8.84902335727e-25
-1.3548280105385e-24
-2.0098915507872e-24
-2.8897818791125e-24
-4.0274744320155e-24
-5.4413807668259e-24
-7.1266017170663e-24
-9.0466329363039e-24
-1.1127275643488e-23
-1.3254625610202e-23
-1.5278727695418e-23
-1.7023748546325e-23
-1.830440705828e-23
-1.8947101281202e-23
-1.8812961686872e-23
-1.7819249781037e-23
-1.5955357186266e-23
-1.3290259647072e-23
-9.9695797721105e-24
-6.2021710377754e-24
-2.2379879702901e-24
1.6594469541423e-24
5.2417634816218e-24
8.3013507323512e-24
1.0690277714405e-23
1.2330296701001e-23
1.3213340917078e-23
1.3393512837117e-23
1.2972780966156e-23
1.2083270373249e-23
1.0869098390769e-23
9.470257491669e-24
8.010259389863e-24
6.5883400772629e-24
5.2761786977024e-24
4.1184414036931e-24
3.1360894269946e-24
2.3312847191493e-24
1.6928329420567e-24
1.2013434262987e-24
8.3357828275128e-25
5.657424869634e-25
3.7569117484381e-25
2.4418136396948e-25
1.5537403697843e-25
9.6812522438736e-26
5.9083177061779e-26
3.5323044176351e-26
2.06913564818e-26
1.1877462782673e-26
6.6822561876821e-27
3.6850411211293e-27
4.1463011256374e-27
0
0
0
0
7.0659954548827e-65
3.8711059377178e-53
-2.8555562898517e-51
-3.5975059708294e-49
-1.6243913870723e-47
-4.5799221623813e-46
-9.4277108916342e-45
-1.5288484882645e-43
-2.0440023736955e-42
-2.3225355845644e-41
-2.2923676152756e-40
-1.9979714005816e-39
-1.5576040914207e-38
-1.0974089623106e-37
-7.0469505663368e-37
-4.153628828478e-36
-2.260750283476e-35
-1.1421195552724e-34
-5.3795228241412e-34
-2.3716277652354e-33
-9.8201349888361e-33
-3.8307789843663e-32
-1.4117081185375e-31
-4.926745396019e-31
-1.6319188759691e-30
-5.1408694793795e-30
-1.543023021521e-29
-4.4201373190977e-29
-1.2103077686602e-28
-3.1722541362361e-28
-7.9692883261641e-28
-1.9212091537413e-27
-4.4495732774822e-27
-9.9106064713206e-27
-2.1248940005902e-26
-4.3895146953569e-26
-8.7437372591064e-26
-1.6807846440242e-25
-3.1201085888615e-25
-5.5969909189726e-25
-9.7079686427638e-25
-1.6290334608493e-24
-2.6459152774057e-24
-4.1615926998271e-24
-6.3408940825769e-24
-9.3625260540137e-24
-1.3399981291781e-23
-1.8593908115973e-23
-2.5017555794926e-23
-3.2639176928064e-23
-4.128748073883e-23
-5.062776528236e-23
-6.0156571649336e-23
-6.9221136492327e-23
-7.7066479940236e-23
-8.2908059390614e-23
-8.6022440768311e-23
-8.5843610804494e-23
-8.2049635723102e-23
-7.4624309588858e-23
-6.3881562308698e-23
-5.0446280417202e-23
-3.5192692547101e-23
-1.9148999229764e-23
-3.382848671081e-24
1.1114688223669e-23
2.3529387694766e-23
3.3294747129504e-23
4.0125710898135e-23
4.4014277259782e-23
4.5192243143327e-23
4.407085234168e-23
4.1169257508352e-23
3.7043438006224e-23
3.22249979795e-23
2.7175885018801e-23
2.2261386337189e-23
1.7740518950492e-23
1.3770617076989e-23
1.0421716850008e-23
7.6961645673601e-24
5.5494728791615e-24
3.9094892067513e-24
2.6921083661499e-24
1.8128180423959e-24
1.1941714754305e-24
7.6978996745903e-25
4.8573210425925e-25
3.0009057114948e-25
1.8156777476806e-25
1.0760821651344e-25
6.248163918287e-26
3.5549340622289e-26
1.9821992718284e-26
1.0833220033292e-26
1.1965876330503e-26
0
0
0
0
6.0526861988993e-64
2.3099410188592e-52
-1.1704671761085e-50
-1.7011352211971e-48
-7.8434251123574e-47
-2.2240469217622e-45
-4.5817524485976e-44
-7.419540283559e-43
-9.8940679915246e-42
-1.12056444504e-40
-1.1019152902663e-39
-9.5656309499673e-39
-7.425933514642e-38
-5.2091388668626e-37
-3.3300619649014e-36
-1.9538614928467e-35
-1.0585288745326e-34
-5.3225539191049e-34
-2.4951042423305e-33
-1.0947336835828e-32
-4.5110609574213e-32
-1.7511807741808e-31
-6.4217808204981e-31
-2.2300868959144e-30
-7.3501456205072e-30
-2.303850869018e-29
-6.8801093072156e-29
-1.9608692336818e-28
-5.3417496245441e-28
-1.3928861258017e-27
-3.4810681936253e-27
-8.348316019202e-27
-1.9233591004191e-26
-4.2613519665334e-26
-9.0882035873429e-26
-1.8674140555221e-25
-3.6999499121303e-25
-7.0742202186605e-25
-1.3061686312657e-24
-2.3304777780141e-24
-4.0205017391372e-24
-6.710386273387e-24
-1.0840945302257e-23
-1.696044571625e-23
-2.5705910584691e-23
-3.7757685462779e-23
-5.3762504734705e-23
-7.4225319656777e-23
-9.9377458365578e-23
-1.2903720912993e-22
-1.6248677388092e-22
-1.9839435399897e-22
-2.3480961981738e-22
-2.6925353000063e-22
-2.9890947136187e-22
-3.2090391888593e-22
-3.3264491315729e-22
-3.3217023819589e-22
-3.1844869576717e-22
-2.9158030004342e-22
-2.5285510616286e-22
-2.0465347685679e-22
-1.5019823000721e-22
-9.3195368235638e-23
-3.7419270545185e-23
1.3693689439833e-23
5.7383496119e-23
9.179247607692e-23
1.1605683917406e-22
1.3026583559584e-22
1.3531156558269e-22
1.3266655702599e-22
1.2413165074827e-22
1.1159385153386e-22
9.6824641849684e-23
8.1336762095133e-23
6.6304665943519e-23
5.2543188043913e-23
4.0531844505219e-23
3.0468992337852e-23
2.2340304217565e-23
1.5988647237351e-23
1.1176306968405e-23
7.6345226080536e-24
5.0987523544602e-24
3.3305827603936e-24
2.1286550504918e-24
1.3315441384371e-24
8.1544020032713e-25
4.890155017146e-25
2.87238762418e-25
1.6528709404036e-25
9.3193712314815e-26
5.1493690757535e-26
2.7886989855484e-26
3.0238530469345e-26
0
0
0
0
4.2991609876079e-63
1.2018468706436e-51
-3.9337490734595e-50
-7.0539079640978e-48
-3.3366078055454e-46
-9.5288607398528e-45
-1.9658857197798e-43
-3.1801916430704e-42
-4.2309037090251e-41
-4.7768607581423e-40
-4.6804581409756e-39
-4.047104354882e-38
-3.1287507409522e-37
-2.1852472645197e-36
-1.390738082413e-35
-8.1227135895193e-35
-4.3801494691211e-34
-2.1920765166104e-33
-1.0227008322441e-32
-4.4655050883613e-32
-1.8311465231287e-31
-7.0735809169104e-31
-2.5811337723728e-30
-8.9188121878641e-30
-2.9247948618133e-29
-9.1212101389731e-29
-2.7100462557685e-28
-7.6841894734255e-28
-2.082504461309e-27
-5.4020177131956e-27
-1.3429998985244e-26
-3.2038380280552e-26
-7.3421887614807e-26
-1.6180483470028e-25
-3.4323113227964e-25
-7.0145476903822e-25
-1.3822657827764e-24
-2.6284375459859e-24
-4.8264636734551e-24
-8.5639398405076e-24
-1.4692542541973e-23
-2.4386130457328e-23
-3.9177221597019e-23
-6.0949433778652e-23
-9.1860600927023e-23
-1.3417373808601e-22
-1.8998300542859e-22
-2.6084016636473e-22
-3.4731232972575e-22
-4.4852980903793e-22
-5.6180701744867e-22
-6.8243151078122e-22
-8.0370956603879e-22
-9.1732739630879e-22
-1.0140370230628e-21
-1.0846128733427e-21
-1.120962339164e-21
-1.1172260319762e-21
-1.0706846939977e-21
-9.823073302281e-22
-8.5682829884218e-22
-7.0232017936995e-22
-5.2931779471706e-22
-3.4962766747338e-22
-1.7500949983539e-22
-1.5931475469827e-23
1.1942235298308e-22
2.2576941379661e-22
3.009204657062e-22
3.4557011377763e-22
3.6277109376098e-22
3.5721472757984e-22
3.3444992505546e-22
3.0015839677312e-22
2.5957167321247e-22
2.1707559522909e-22
1.7600928114748e-22
1.3863501694019e-22
1.0623663083344e-22
7.9297048113252e-23
5.770876649833e-23
4.0980510388793e-23
2.8415659064957e-23
1.9250154368083e-23
1.2747473562823e-23
8.2550001621162e-24
5.2297363657408e-24
3.2423471729187e-24
1.9678264880703e-24
1.1694391533006e-24
6.8066758148128e-25
3.8810626089307e-25
2.1682309066652e-25
1.1870567204376e-25
6.3695932756811e-26
6.780397532014e-26
0
0
0
0
2.6045163110176e-62
5.5383356969712e-51
-1.0197831610892e-49
-2.591170091809e-47
-1.2651276853178e-45
-3.6452979238011e-44
-7.5374249913001e-43
-1.2185855093832e-41
-1.6178314804063e-40
-1.8212331795301e-39
-1.7782647925087e-38
-1.5317127707729e-37
-1.1792763849849e-36
-8.2011334620067e-36
-5.1961814049047e-35
-3.0210405168316e-34
-1.6215162450729e-33
-8.0766742183661e-33
-3.7500980045724e-32
-1.6295146585859e-31
-6.6494221302655e-31
-2.5559653536926e-30
-9.2803516569484e-30
-3.190685763439e-29
-1.0410734664516e-28
-3.2302341594582e-28
-9.5486281697978e-28
-2.6935965116323e-27
-7.262366644181e-27
-1.8741029017183e-26
-4.6349573654393e-26
-1.0999154194322e-25
-2.507374649294e-25
-5.4963613422694e-25
-1.1596975883914e-24
-2.3573019082696e-24
-4.6200492065988e-24
-8.7372177314635e-24
-1.5955296515851e-23
-2.8153263839238e-23
-4.8029676790777e-23
-7.9266751299853e-23
-1.2661794651051e-22
-1.9584998479168e-22
-2.9346462858737e-22
-4.2613744776865e-22
-5.9984605354454e-22
-8.1871993455969e-22
-1.0837218701491e-21
-1.3913523410523e-21
-1.7326321329058e-21
-2.092641083118e-21
-2.4508541047673e-21
-2.7824127015104e-21
-3.0603116981188e-21
-3.2582950017998e-21
-3.3540816237122e-21
-3.3324274458858e-21
-3.1875036065516e-21
-2.9241534556417e-21
-2.5577660982624e-21
-2.1127410833108e-21
-1.6197657147798e-21
-1.112330740249e-21
-6.2302919911116e-22
-1.8019504871329e-22
1.946540336442e-22
4.8827560707287e-22
6.9597667788441e-22
8.2081653559193e-22
8.7200561036098e-22
8.628524068048e-22
8.0862030319341e-22
7.2460172653167e-22
6.2462110129337e-22
5.2006648008413e-22
4.1944694709769e-22
3.2839562775258e-22
2.4999414276963e-22
1.8528272940081e-22
1.3383399187134e-22
9.4297376451498e-23
6.4856064971764e-23
4.357021860531e-23
2.8605604213135e-23
1.8362821312209e-23
1.1530145790147e-23
7.0842969687837e-24
4.2605608586143e-24
2.5088256687956e-24
1.4468361869547e-24
8.1735752872491e-25
4.5241353955635e-25
2.4539531698644e-25
1.3045798448218e-25
1.3634295677114e-25
0
0
0
0
1.3737581585819e-61
2.2884641675359e-50
-1.5428118034107e-49
-8.4910857080452e-47
-4.3144912490499e-45
-1.2570122941809e-43
-2.6074342943695e-42
-4.2150804982362e-41
-5.5861788924453e-40
-6.2712924512904e-39
-6.1028354766723e-38
-5.2369381925655e-37
-4.0156377533879e-36
-2.7807327832999e-35
-1.7540674136142e-34
-1.0151749048459e-33
-5.4235656600088e-33
-2.6886893532066e-32
-1.2424148173159e-31
-5.372477698352e-31
-2.1815890736504e-30
-8.3444991504676e-30
-3.0147564356219e-29
-1.0313419887773e-28
-3.3482741711611e-28
-1.0336797516774e-27
-3.0401682778022e-27
-8.5327009147221e-27
-2.288875600696e-26
-5.8765134016172e-26
-1.4459246791086e-25
-3.4136805952016e-25
-7.7416730597152e-25
-1.6882204904103e-24
-3.543405880036e-24
-7.1646508377431e-24
-1.3967183676677e-23
-2.6272044190091e-23
-4.7715280208259e-23
-8.3730613401009e-23
-1.4204865431366e-22
-2.3310844611994e-22
-3.7022740579358e-22
-5.6933823282539e-22
-8.4809558850818e-22
-1.2242012438673e-21
-1.7129071423488e-21
-2.3238297155173e-21
-3.0574229779893e-21
-3.9016675041849e-21
-4.8296772753013e-21
-5.7989461165067e-21
-6.7528086928948e-21
-7.6243738366918e-21
-8.3427436480096e-21
-8.8408471827302e-21
-9.0638044917528e-21
-8.9765032543078e-21
-8.5690893576351e-21
-7.8593598447252e-21
-6.8915519797612e-21
-5.7316420756181e-21
-4.4598705356726e-21
-3.161668802121e-21
-1.9183889026256e-21
-7.9919213373195e-22
1.4483426204788e-22
8.8371896655486e-22
1.408712144768e-21
1.7298346311055e-21
1.8715962255948e-21
1.8677772210613e-21
1.7561545710075e-21
1.5738933771927e-21
1.3540732738277e-21
1.1235428101712e-21
9.0204977459473e-22
7.0241929336268e-22
5.3145932325203e-22
3.9125914891908e-22
2.8059104633606e-22
1.9620287208778e-22
1.3387578386784e-22
8.919842578458e-23
5.80664494475e-23
3.695125366771e-23
2.299670586762e-23
1.4002611214337e-23
8.344768585918e-24
4.8687671266192e-24
2.781922466875e-24
1.5570403459687e-24
8.5384258472952e-25
4.5883961282621e-25
2.4166842300617e-25
2.4800589192565e-25
0
0
0
0
6.4087577062757e-61
8.5637499633699e-50
2.5135204174994e-49
-2.4918037905734e-46
-1.3327753857862e-44
-3.9370681049224e-43
-8.202185630754e-42
-1.3266157368676e-40
-1.7556738345625e-39
-1.9660658529684e-38
-1.9071517475268e-37
-1.6305849225509e-36
-1.2453525607376e-35
-8.5874913675467e-35
-5.3931875335107e-34
-3.1072273507772e-33
-1.6523562380553e-32
-8.1528523342877e-32
-3.7493589301504e-31
-1.6134816802874e-30
-6.5199493318805e-30
-2.4816508983422e-29
-8.9218076833231e-29
-3.037090756126e-28
-9.8113167349413e-28
-3.0139924933787e-27
-8.8207096039746e-27
-2.4634430819691e-26
-6.5754946197653e-26
-1.6798686885633e-25
-4.1128994029364e-25
-9.6620037655643e-25
-2.1802846454623e-24
-4.7307534213967e-24
-9.879381639859e-24
-1.987433237758e-23
-3.8545342657507e-23
-7.2126598975037e-23
-1.3030677202486e-22
-2.2744065305309e-22
-3.8375979130725e-22
-6.2629940987734e-22
-9.8913965071762e-22
-1.5124805310489e-21
-2.2400816203298e-21
-3.2147460661459e-21
-4.4718388690095e-21
-6.0312841878463e-21
-7.8890148421408e-21
-1.000932696962e-20
-1.2319874003212e-20
-1.4710979573482e-20
-1.7040482247328e-20
-1.9144469735729e-20