/*--------------------------------*- C++ -*----------------------------------*\
  =========                 |
  \\      /  F ield         | OpenFOAM: The Open Source CFD Toolbox
   \\    /   O peration     | Website:  https://openfoam.org
    \\  /    A nd           | Version:  7
     \\/     M anipulation  |
\*---------------------------------------------------------------------------*/
FoamFile
{
    version     2.0;
    format      ascii;
    class       volScalarField;
    location    "1.8";
    object      alpha.water;
}
// * * * * * * * * * * * * * * * * * * * * * * * * * * * * * * * * * * * * * //

dimensions      [0 0 0 0 0 0 0];

internalField   nonuniform List<scalar> 
6000
(
0
0
0
0
0
0
0
0
0
0
0
0
0
0
0
0
0
0
0
0
0
0
0
0
0
0
0
0
0
0
0
0
0
0
0
0
0
0
0
0
0
0
0
0
0
0
0
0
0
0
0
0
0
0
0
0
0
0
0
0
0
0
0
0
0
0
0
0
0
0
0
0
0
0
0
0
0
0
0
0
0
0
0
0
0
0
0
0
0
0
0
0
0
0
0
0
0
0
0
0
0
0
0
0
0
0
0
0
0
0
0
0
0
0
0
0
0
0
0
1.2992708168979e-199
5.6432712234555e-200
1.5397577689601e-199
8.4182789568403e-204
2.5530376055371e-204
1.6779383004585e-200
2.4505571028294e-200
2.4208099363932e-203
2.6060736735645e-204
1.6582334282879e-203
1.7812040055467e-202
1.5516218549461e-202
1.8597534883472e-204
1.556792146803e-203
1.2724744040211e-203
8.4873572214176e-204
5.2433678907258e-204
2.147538626245e-204
9.6144714006531e-205
5.8232411952236e-205
2.9206376824485e-205
1.0576195692281e-205
5.4823195006962e-206
1.8706187036173e-206
7.0143249520299e-207
2.5723500990846e-207
1.1754396142994e-207
4.6290833422287e-208
1.408953778999e-208
5.9403415553238e-209
1.7421137440684e-209
7.0332032080256e-210
2.4697605858135e-210
6.893316484986e-211
2.6274781221071e-211
7.1339352926789e-212
2.1541196950435e-212
7.847103053988e-213
2.0566975808451e-213
7.2535546484628e-214
1.863160990803e-214
6.0220440572211e-215
1.5573045787632e-215
4.3529459534276e-216
1.2073120030227e-216
3.3235228030037e-217
9.083053897114e-218
2.4651047027305e-218
6.6447663729287e-219
1.7794835848937e-219
4.7353550520164e-220
1.2524179694426e-220
3.2927958552463e-221
8.6075343689833e-222
2.237518126049e-222
5.7849616546373e-223
1.4878172698517e-223
3.8069750400113e-224
9.6929317690613e-225
2.4560417358988e-225
6.1941269932772e-226
1.5550495732555e-226
3.8867082242362e-227
9.6726376136551e-228
2.3970820295974e-228
5.916211744653e-229
1.4543649084414e-229
3.5613629832687e-230
8.6879024777651e-231
2.1115947726437e-231
5.1137885342841e-232
1.234098056362e-232
2.9680286600574e-233
7.1143221326235e-234
1.6997310990473e-234
4.0480067228234e-235
9.6105545657353e-236
2.2747449499834e-236
5.3681393553684e-237
1.2631369540305e-237
3.8680462801292e-238
0
0
0
0
0
0
0
0
0
0
0
0
0
0
0
0
0
0
0
2.6313835203003e-137
1.2045627440515e-134
1.5790573483912e-136
7.7820256242149e-134
1.4919447178025e-133
2.2701288248065e-133
2.1185831358278e-137
3.0174727922838e-134
0
5.0014686871123e-139
6.9647085620436e-136
6.0254145023718e-136
3.4257504001529e-136
0
1.5687940667603e-138
6.3999579357092e-138
4.8480834870564e-138
1.6965733665001e-138
0
2.173125764936e-140
3.3313770511685e-140
2.6204210130777e-144
4.3655270292297e-141
2.7623158044144e-145
7.4542437422731e-159
3.7405063055975e-144
2.4684414115342e-144
3.5611996807148e-144
2.0771402842468e-145
8.701713790625e-146
3.4494156450807e-146
6.0384328977366e-147
5.8614386920221e-147
3.3974790939378e-148
5.5252777205816e-149
5.4856146573819e-149
0
2.8307197028382e-150
0
4.3406092631854e-153
-1.4036893977194e-156
4.0908076901006e-153
2.8318789086268e-153
2.6511904565493e-170
2.0879483913431e-154
0
0
2.7841555698554e-156
0
1.9599966634584e-157
0
1.3479718437538e-158
4.9885647122755e-159
1.8088863469927e-159
6.4354933515636e-160
6.3174603069054e-177
-3.5910604374154e-187
7.4354517389742e-162
2.5558135200336e-162
0
1.5725169574069e-163
1.542348713666e-180
9.5335296983734e-165
8.6668451803402e-166
5.6995939682522e-166
1.8493908497089e-166
5.9253219730805e-167
1.8755652335653e-167
0
1.0669447467775e-168
3.3011303944044e-169
0
1.8371698825709e-170
0
1.13550326334e-171
3.263203919244e-172
9.4531673362556e-173
2.7441236447963e-173
0
1.4690758358976e-174
6.0345856085153e-175
0
0
0
0
0
0
0
0
0
0
0
0
0
0
0
0
0
-3.2259645984231e-77
-2.2874861726106e-76
-7.1983607162421e-76
-1.4018364689435e-75
-1.9610439132156e-75
-2.1481536012881e-75
2.0493487762139e-60
5.8587690129614e-60
3.2198975805455e-59
1.8834454077672e-58
1.0739165123767e-57
3.9223969695065e-57
4.9716452807666e-56
8.4054327664323e-54
6.0108170689781e-53
2.9640804788497e-52
3.2168536541374e-51
1.2960538643016e-50
8.7307330608952e-50
3.2766021974132e-49
1.0372106180558e-48
3.9231521882087e-48
9.4909560880772e-48
2.4314123232473e-47
4.8434852955124e-47
6.9481947633918e-47
1.3204236392825e-46
2.3092938652737e-46
3.6126546534635e-46
5.2640255554974e-46
1.1671997792587e-45
1.1199129345096e-45
9.3028627113028e-46
8.4105441748115e-46
7.5931476746251e-46
4.7931807903422e-46
2.0092946428727e-46
4.3212524990739e-47
2.8819021491731e-48
6.0372799374946e-49
5.0887523119087e-50
2.2509227252757e-50
2.0288767411287e-51
3.3839406919554e-52
1.6431883661514e-52
1.484430250124e-53
6.1771642589701e-54
5.8785321008704e-55
9.9465044812898e-56
4.7507456254435e-56
4.358550182192e-57
1.7846474995695e-57
1.723716028982e-58
2.9117107360007e-59
1.5716890380727e-59
2.3513925761604e-60
6.5568385989286e-61
5.6022194048378e-62
9.3146867990513e-63
3.989877217295e-63
4.0179251230145e-64
4.8438690360031e-65
1.2754204623437e-65
2.4964228601268e-66
4.6528554372208e-67
2.3822435028715e-67
7.1458351456722e-68
1.4859383337314e-68
2.8686386164459e-69
2.1422076672303e-70
3.4514554954255e-71
1.6680261034969e-71
4.5747026495214e-72
3.4219761761193e-73
5.473420152908e-74
2.5987808403087e-74
7.5959163001163e-75
1.2233986699759e-75
2.8516932130477e-76
2.2267917583256e-77
9.5186038972632e-78
2.2756719393496e-78
9.6647895292474e-79
0
0
0
0
0
0
0
0
0
8.277625553917e-49
3.658647424942e-47
2.4246910160773e-46
5.5173278809799e-45
3.3684672360484e-44
3.3928116743915e-44
1.4391277771326e-45
1.2446030555722e-61
1.6385664553679e-42
-1.6490048219095e-51
3.9827297778311e-60
0
0
1.5661318995571e-43
3.0275587946449e-60
5.9740618079878e-60
2.4892061101844e-59
1.4210255386994e-58
8.0097401987488e-58
3.1741208960872e-57
3.6243961242556e-56
2.5333569131059e-45
6.7047797421472e-53
2.3009269030064e-52
8.4977629008473e-45
1.4402493686931e-50
3.1192853532982e-40
2.4843225342393e-44
1.1397026406905e-48
2.3971580021671e-43
1.0343054578406e-47
2.0120131695171e-47
6.5887775154325e-45
7.0252134649476e-47
1.1272866419956e-46
5.8120953752821e-45
9.6473244986814e-46
7.0806939571211e-46
8.2864398603351e-46
5.2876091016486e-44
1.5482090648045e-43
3.0914415153892e-45
1.0126836310823e-45
4.9719900178677e-46
5.5180178615995e-45
4.0612880387211e-47
8.9378787622183e-48
8.9248054659383e-47
3.2616482575597e-49
8.0600711135469e-48
1.3065633857686e-50
2.4528161428204e-51
1.3911658685249e-49
9.8853317334919e-53
1.2243268806254e-50
3.9028043519453e-54
7.3369361052209e-55
1.9045858362998e-52
2.9402503180967e-56
1.4867461191071e-53
1.1555769937546e-57
3.7989079964636e-58
6.5068828336386e-55
4.8711164921947e-59
3.5855820713152e-56
3.6894434882667e-61
6.9118441263591e-62
1.4365596749945e-57
9.5135573225511e-62
5.0006153553804e-64
3.1483402090595e-63
1.8472065271305e-65
3.0366158375087e-62
2.4420557033275e-61
4.5088811160212e-62
2.2375862899878e-63
2.109694941907e-62
1.29810590975e-66
2.5990949285216e-70
2.1507313094165e-65
1.3810062689593e-65
2.2177036706326e-72
1.2691294973028e-67
1.0561107099053e-66
2.4217460589794e-67
8.8981888978529e-69
1.3315552502193e-67
8.0351291530898e-72
2.1960950954641e-68
5.9503012807912e-70
2.4215814322073e-69
0
0
0
0
0
0
0
2.494371847349e-39
1.9887754978636e-37
7.7337375990652e-36
1.9495793001129e-34
3.5985381593048e-33
5.1651740485816e-32
5.8949983811867e-31
5.4726359337212e-30
4.4001020738551e-29
3.3519888901866e-28
2.5379081041335e-27
1.8721420330799e-26
1.2894686575035e-25
8.03455967801e-25
4.4524416478208e-24
2.179843361771e-23
9.4212194455375e-23
3.601734472939e-22
1.2218376731054e-21
3.6919271718651e-21
9.9803737870384e-21
2.426637083837e-20
5.3413135463313e-20
1.0725036834032e-19
1.9806635714541e-19
3.3889351247772e-19
5.3945615908053e-19
7.961985068219e-19
1.0671381639825e-18
1.2443053744173e-18
1.2722518021752e-18
1.2529036096671e-18
1.1824207757841e-18
1.030275395756e-18
7.9502352235092e-19
5.2246758389553e-19
2.7997313309992e-19
1.1781951879147e-19
3.8735571960341e-20
1.059178429893e-20
2.722950204967e-21
7.2919712381764e-22
2.0904317490688e-22
6.3095048626246e-23
1.9665473845695e-23
6.2516237477113e-24
2.0075043255e-24
6.4466292248343e-25
2.0500600468629e-25
6.4074684529581e-26
1.9607388919963e-26
5.8735678675693e-27
1.7264445153037e-27
4.9951707188964e-28
1.4265095790138e-28
4.0280292220449e-29
1.1257081921352e-29
3.1154559607507e-30
8.5425458099878e-31
2.3219059204542e-31
6.2593152288657e-32
1.67439683813e-32
4.4467357139872e-33
1.1728789297365e-33
3.0736307789421e-34
8.0053391854117e-35
2.0728531106611e-35
5.3375150267479e-36
1.3671091035732e-36
3.4838851210011e-37
8.8352008753169e-38
2.2302288531932e-38
5.6046060013399e-39
1.4024263803202e-39
3.4948295362892e-40
8.674608310878e-41
2.1449369000501e-41
5.2841961104755e-42
1.2971750258746e-42
3.1734067860495e-43
7.7376618033013e-44
1.8806031651548e-44
4.5565074032171e-45
1.1006677641905e-45
2.6509972043033e-46
6.3669092787561e-47
1.5249338149296e-47
3.642520929618e-48
8.6795098321169e-49
2.0595257292329e-49
4.9548266337407e-50
1.0140960360206e-50
4.5258348065282e-51
0
0
0
0
0
0
2.2738276209906e-39
2.6585729202714e-37
1.3978930835899e-35
4.5841625974285e-34
1.0681834385136e-32
1.9061638187485e-31
2.716639003544e-30
3.1534410681092e-29
3.041227305404e-28
2.4799051906746e-27
1.7445045022496e-26
1.1453514212685e-25
7.6480508631243e-25
5.0888225384663e-24
3.172501366022e-23
1.8098018822771e-22
9.3189335324451e-22
4.2707457935913e-21
1.7239436367901e-20
6.0970320171127e-20
1.88706953275e-19
5.1231841585315e-19
1.227610494431e-18
2.6245959354955e-18
5.0836722947725e-18
9.0745061095965e-18
1.5142123003238e-17
2.3783403155884e-17
3.502821585969e-17
4.7352766153646e-17
5.6196438691635e-17
5.8116233056814e-17
5.7408550613886e-17
5.4580469994162e-17
4.8198353796832e-17
3.7868426618073e-17
2.5506858066719e-17
1.4139863776925e-17
6.2347110989097e-18
2.1758466854181e-18
6.3482256618334e-19
1.7273608470281e-19
4.8340774372642e-20
1.4400150890132e-20
4.5242980321782e-21
1.473550850522e-21
4.9065643207882e-22
1.6501224622625e-22
5.5382294000532e-23
1.8347918704191e-23
5.9515418663026e-24
1.8822869659918e-24
5.8030327592063e-25
1.74852247278e-25
5.1688331573553e-26
1.5044219428056e-26
4.3222970340474e-27
1.2276814895894e-27
3.4502390205423e-28
9.5996413192912e-29
2.6456962186736e-29
7.2269345635218e-30
1.957704649783e-30
5.2619908845055e-31
1.4040001071229e-31
3.720298336468e-32
9.7935941505314e-33
2.5621561705793e-33
6.6634889104676e-34
1.7232691284241e-34
4.4327467310656e-35
1.1343977113298e-35
2.8888615939326e-36
7.3222817337853e-37
1.8475980287016e-37
4.6418092199674e-38
1.1613365199439e-38
2.8939264040454e-39
7.1835455274389e-40
1.7765264573007e-40
4.377659073357e-41
1.0749848293031e-41
2.6308895345972e-42
6.4178529435989e-43
1.5606597746803e-43
3.7835559638575e-44
9.1454567409378e-45
2.2042594046792e-45
5.2978542341819e-46
1.2700818639343e-46
3.0318243739945e-47
7.3360702090721e-48
1.5116870474355e-48
6.7744492964714e-49
0
0
0
0
0
1.0110405772847e-39
1.6199503020877e-37
1.0991387772351e-35
4.4685752258027e-34
1.2651360545908e-32
2.7039485428688e-31
4.5897906535302e-30
6.3836333617914e-29
7.397615432925e-28
7.2680411268386e-27
6.0781681475359e-26
4.3655228333633e-25
2.7571487619021e-24
1.5865298771682e-23
9.6530986464179e-23
6.7205249627075e-22
4.3299032905526e-21
2.4197188389885e-20
1.2002666080932e-19
5.2825871861198e-19
2.0254040796221e-18
6.6393497257054e-18
1.8362462424185e-17
4.2588684848109e-17
8.3321838758466e-17
1.4108362114097e-16
2.1638086602339e-16
3.1610720198124e-16
4.5632337016436e-16
6.5560282371284e-16
9.1027270641987e-16
1.145598575053e-15
1.2376373298644e-15
1.231137571332e-15
1.1850298861288e-15
1.0675326469362e-15
8.583033668525e-16
5.9363188849267e-16
3.3953009830489e-16
1.557403433141e-16
5.7151251371416e-17
1.7678455976941e-17
5.0976530043444e-18
1.5012038422374e-18
4.6809238797932e-19
1.5384180225636e-19
5.2486806570222e-20
1.8320845444249e-20
6.4546447292615e-21
2.2656109350271e-21
7.8325071303027e-22
2.6440418278356e-22
8.6726674116916e-23
2.761275533564e-23
8.5529444330351e-24
2.5881534755323e-24
7.6860560933464e-25
2.2482715025883e-25
6.4930533691764e-26
1.8537995739202e-26
5.2360523042438e-27
1.4639235776259e-27
4.0537920116951e-28
1.1125039901724e-28
3.0275949439208e-29
8.174908910188e-30
2.1910914994557e-30
5.8318922052246e-31
1.5420212413159e-31
4.0518127145516e-32
1.0583289129328e-32
2.7487011728367e-33
7.1004090742556e-34
1.8247053214505e-34
4.6660812667609e-35
1.1875494202034e-35
3.0086680061087e-36
7.5892297750824e-37
1.9063144336842e-37
4.7690585236824e-38
1.1884357007299e-38
2.9504171232693e-39
7.2981380484261e-40
1.7989315449773e-40
4.4191741052584e-41
1.0820286282876e-41
2.6409019755671e-42
6.4257524776972e-43
1.558816144632e-43
3.7704668983483e-44
9.0957881283497e-45
2.1846675215684e-45
5.3176451808223e-46
1.1032988877073e-46
4.9667376334695e-47
0
0
0
0
0
4.1035759995791e-38
4.6449827144163e-36
2.5221093938869e-34
8.8005562415525e-33
2.231624215056e-31
4.4024503819348e-30
7.0567747557877e-29
9.4520831453375e-28
1.0751811663248e-26
1.0547249197248e-25
8.922920160958e-25
6.5794452277401e-24
4.233336529324e-23
2.3503005342497e-22
1.2649850650264e-21
7.1347220929866e-21
5.9966236738421e-20
6.5492537514006e-19
5.6677332511928e-18
3.3863340233682e-17
1.5684620845971e-16
5.8004789238445e-16
1.7019492153023e-15
3.8924239401262e-15
6.6530840961127e-15
8.2344172284046e-15
8.313625426647e-15
8.3811341876624e-15
8.7111213753857e-15
9.6337596929991e-15
1.1503148444658e-14
1.419261872587e-14
1.6240128449793e-14
1.6485277391443e-14
1.6101002960016e-14
1.4795500455528e-14
1.2208237532032e-14
8.6590934470081e-15
5.0879396010234e-15
2.4116260047246e-15
9.2486807627423e-16
3.0269305415786e-16
9.2831447575249e-17
2.8969326459417e-17
9.5203300493601e-18
3.2896635590321e-18
1.1793928746113e-18
4.3231334257134e-19
1.5972693337875e-19
5.8700325755733e-20
2.1214459890403e-20
7.4732015761593e-21
2.5512512565404e-21
8.4212713658755e-22
2.6910874057139e-22
8.3593613845781e-23
2.5376872625998e-23
7.5660784111086e-24
2.2232962962533e-24
6.4518983546348e-25
1.8508995052454e-25
5.2523546202424e-26
1.4752108873375e-26
4.1035436117464e-27
1.1312286032717e-27
3.0923574955439e-28
8.3870112181978e-29
2.2578933257592e-29
6.0360887641803e-30
1.6029642940298e-30
4.2301352887261e-31
1.1096368588482e-31
2.8941883054187e-32
7.5076705817324e-33
1.9374056981557e-33
4.9747296830317e-34
1.2712811036013e-34
3.2338529842998e-35
8.1899881495688e-36
2.0653955248386e-36
5.1873810060324e-37
1.2977223968092e-37
3.234179467623e-38
8.0306647327253e-39
1.986996513214e-39
4.8994929431042e-40
1.204095821465e-40
2.9496581295321e-41
7.2032157471151e-42
1.7537097242647e-42
4.2577740162827e-43
1.0291147762157e-43
2.5202294390367e-44
5.265087621269e-45
2.3818699368712e-45
0
0
0
0
6.4057807953068e-51
7.9636025886018e-37
7.8264359014269e-35
3.7898947312458e-33
1.2043437683251e-31
2.8254379543228e-30
5.2217427565122e-29
7.9280903684088e-28
1.016938396822e-26
1.1224765026299e-25
1.0820902901519e-24
9.1266680047441e-24
6.8007674767814e-23
4.4593334611759e-22
2.5395235575339e-21
1.3093261499564e-20
6.090021041174e-20
4.5145852944119e-19
5.4055767615575e-18
5.2185065149367e-17
7.4164165536304e-16
6.0174260235086e-15
3.0210258335701e-14
1.0352318635493e-13
2.3561558725874e-13
3.3009154715801e-13
3.3098604791704e-13
3.0300182908508e-13
2.3982410235066e-13
1.5961452948594e-13
1.2037889065966e-13
1.2233916031044e-13
1.3311454381417e-13
1.4813801314758e-13
1.5402537208412e-13
1.5176063559894e-13
1.4179580409441e-13
1.1972845832867e-13
8.6999926490018e-14
5.250400521373e-14
2.5716991925253e-14
1.0310086936758e-14
3.5736477702345e-15
1.168709078137e-15
3.8830538275617e-16
1.3527243598384e-16
4.939879506726e-17
1.867988025325e-17
7.2073664981142e-18
2.7970630147161e-18
1.0780015907507e-18
4.0820067896605e-19
1.5054473122779e-19
5.3714978663082e-20
1.8469390549463e-20
6.1175339412443e-21
1.9583899115126e-21
6.0944595203514e-22
1.8552662492523e-22
5.5524875200051e-23
1.6388071478508e-23
4.777595550854e-24
1.3768075188196e-24
3.9243860572369e-25
1.1070715694484e-25
3.0929950409698e-26
8.5638691921035e-27
2.3512957547156e-27
6.4049592855837e-28
1.7317862236168e-28
4.6496095807194e-29
1.2400584119577e-29
3.286372416124e-30
8.6571278449113e-31
2.2674401985579e-31
5.9063010637021e-32
1.5304429349678e-32
3.9458166606526e-33
1.0124284786973e-33
2.585727703575e-34
6.5746087533408e-35
1.6645558413794e-35
4.1969731996593e-36
1.0540161005217e-36
2.6368871271104e-37
6.5724244271394e-38
1.6323103342648e-38
4.039924778929e-39
9.9651716014521e-40
2.4500961630887e-40
6.0048640346686e-41
1.4674510839146e-41
3.5697213040886e-42
8.796507239082e-43
1.8504363948517e-43
8.4154656098153e-44
0
0
0
0
-2.0221201406683e-62
9.816998356132e-36
8.9795548569011e-34
4.0777000317848e-32
1.2232371205155e-30
2.7239936599598e-29
4.7986322954957e-28
6.9685903860206e-27
8.5807127222095e-26
9.1440367603135e-25
8.570774522147e-24
7.1113182041444e-23
5.27171841898e-22
3.473450486024e-21
2.0251958015207e-20
1.0657111826847e-19
4.6543352355728e-19
2.4577167933024e-18
2.2276959581507e-17
2.4667732809495e-16
3.504087160355e-15
3.6229346106141e-14
2.5271672425781e-13
1.1333984099891e-12
3.3230998331703e-12
6.3581789187953e-12
6.806557466346e-12
6.2585115013838e-12
4.9845814171254e-12
3.3284075265346e-12
1.8971925856553e-12
1.1047967307936e-12
9.7361751968661e-13
1.0036735562944e-12
1.0280842104941e-12
1.0196931123803e-12
9.717667202367e-13
8.445655010515e-13
6.3510561502979e-13
3.9644320695727e-13
2.0104217364223e-13
8.407492796626e-14
3.0797758249795e-14
1.0753817795723e-14
3.8222100903684e-15
1.4199645358799e-15
5.5090682985559e-16
2.2057810214857e-16
8.9829004391065e-17
3.6700026167949e-17
1.4868607206084e-17
5.9166404380042e-18
2.2932918371017e-18
8.5936888153567e-19
3.0954279418845e-19
1.0689663979731e-19
3.5453201194145e-20
1.1355580639662e-20
3.5386420683296e-21
1.0801616088332e-21
3.2449710091582e-22
9.6185045314588e-23
2.816330528561e-23
8.1510269550412e-24
2.3331791381307e-24
6.609713114762e-25
1.8544822750589e-25
5.1565215241943e-26
1.4218020648603e-26
3.8894637141943e-27
1.0560926677922e-27
2.8474077887939e-28
7.6258919645876e-29
2.0294089269319e-29
5.3680804349505e-30
1.4117597308877e-30
3.6923857732859e-31
9.6064182464148e-32
2.4866811257194e-32
6.4057816488954e-33
1.6424823514923e-33
4.1926000247008e-34
1.0655967160067e-34
2.6971000565171e-35
6.799231954917e-36
1.707423858009e-36
4.2716741629023e-37
1.0648381027196e-37
2.645136691501e-38
6.5484763853036e-39
1.6158364498182e-39
3.9750269808543e-40
9.7329523293222e-41
2.4136174000379e-41
5.1124774725828e-42
2.338137378507e-42
0
0
0
0
0
8.678088390346e-35
7.624711972001e-33
3.3310301758699e-31
9.6309644579852e-30
2.0702700155225e-28
3.5245784718177e-27
4.9496305170343e-26
5.8966160082411e-25
6.0848213350436e-24
5.5322940598133e-23
4.4775531785838e-22
3.2610356362799e-21
2.1326061204848e-20
1.2505996192259e-19
6.6842819393157e-19
3.0415326082773e-18
1.3029060353635e-17
7.3311219574654e-17
6.4459572503938e-16
7.4914434010892e-15
8.2382269812021e-14
6.2354334552186e-13
3.5422167367829e-12
2.9187982920638e-11
8.3512294815179e-11
1.6142308510309e-10
1.5672614225636e-10
1.145807751974e-10
6.2908586466992e-11
2.6417864887646e-11
1.041277701075e-11
5.2070662741922e-12
4.5153339278065e-12
4.6501794260971e-12
4.7756028486501e-12
4.6946387602097e-12
4.2849393639409e-12
3.3761229660319e-12
2.1864506989183e-12
1.1494153929341e-12
5.0455365311428e-13
1.9742192124578e-13
7.4362817291278e-14
2.8496095903514e-14
1.1358652574812e-14
4.7055855385689e-15
2.0031359872741e-15
8.6396132456757e-16
3.7275463719357e-16
1.5926748148664e-16
6.6848885654025e-17
2.7352471077207e-17
1.0822843120184e-17
4.1097525375605e-18
1.4899518508682e-18
5.1535910028344e-19
1.7081894502762e-19
5.4691108875033e-20
1.7061976597544e-20
5.2222702173622e-21
1.5746841320042e-21
4.6866563228586e-22
1.3779090393933e-22
4.0040659310554e-23
1.1507351482798e-23
3.273072635807e-24
9.2205458993814e-25
2.5743270067419e-25
7.1272860957392e-26
1.9577288330158e-26
5.3375102617888e-27
1.4449551460372e-27
3.8855819092967e-28
1.0382148171536e-28
2.7572702529968e-29
7.280367102665e-30
1.9117032689954e-30
4.9932579442731e-31
1.2975957676592e-31
3.3556420374192e-32
8.6372496237717e-33
2.2131780168011e-33
5.6463877177979e-34
1.4345194858791e-34
3.6298396400341e-35
9.1490019801777e-36
2.2973222746679e-36
5.7475851223228e-37
1.432898740984e-37
3.5600181068269e-38
8.8169446621756e-39
2.1731788154309e-39
5.4238724022065e-40
1.1568338742094e-40
5.3219950734757e-41
0
0
0
0
-5.992545734006e-93
5.8933593308397e-34
5.0564860003693e-32
2.1557970710737e-30
6.0811909587282e-29
1.2754372243106e-27
2.1187217975439e-26
2.902186804792e-25
3.3700665941014e-24
3.3859320035709e-23
2.9937861508686e-22
2.3588705835028e-21
1.6766018059016e-20
1.0774410031338e-19
6.2777325461046e-19
3.3417482369643e-18
1.5852319985885e-17
6.6852520377805e-17
2.7395521994889e-16
1.4770519488402e-15
1.1025767797134e-14
9.5251424337571e-14
6.951448071582e-13
4.3749115377181e-12
2.8167241459912e-11
2.0673189255705e-10
1.5350212843604e-09
2.134527549431e-09
1.6527589739553e-09
8.6026431103567e-10
3.2380151226146e-10
1.0348955485868e-10
3.8470642126953e-11
2.1300919015451e-11
1.7766457884338e-11
1.7150112928924e-11
1.6399698692291e-11
1.4672320082189e-11
1.1654159860359e-11
7.8751080830547e-12
4.4559823844543e-12
2.1509751149783e-12
9.3235150906393e-13
3.8720138283409e-13
1.6211561130277e-13
7.0032617206488e-14
3.1228883097421e-14
1.4221025955984e-14
6.5274270146787e-15
2.9868992794799e-15
1.3517636759027e-15
6.0120304551531e-16
2.6099629348016e-16
1.0967727214807e-16
4.4203150942459e-17
1.6951629583983e-17
6.1623649286214e-18
2.1281301563531e-18
7.0354938082247e-19
2.2498155164995e-19
7.0257237312475e-20
2.1563393981735e-20
6.5257380010996e-21
1.9497255947612e-21
5.7541902030812e-22
1.6783883877324e-22
4.8416971683798e-23
1.3823941317691e-23
3.9094161811601e-24
1.0957603853105e-24
3.0456625805227e-25
8.3988351360304e-26
2.2988676293189e-26
6.2479276581567e-27
1.6867085184796e-27
4.5244725410823e-28
1.2062849056452e-28
3.197463388467e-29
8.4284075185664e-30
2.2098970522441e-30
5.7647452367292e-31
1.4964360496482e-31
3.8662384750802e-32
9.943714328344e-33
2.5463047008682e-33
6.4929431247246e-34
1.648944430683e-34
4.1712251086063e-35
1.0511650553262e-35
2.6392595227326e-36
6.6029792775178e-37
1.6465283087325e-37
4.0856171947048e-38
1.0263672050264e-38
2.2042748278038e-39
1.0203653085193e-39
0
0
0
0
5.7956346104491e-71
3.2108810771084e-33
2.7164780536581e-31
1.140527849685e-29
3.164728690227e-28
6.5244859006182e-27
1.0647866213783e-25
1.4316036850676e-24
1.6298580298424e-23
1.6031135228198e-22
1.384453547794e-21
1.063606786588e-20
7.3579321890493e-20
4.6159949023778e-19
2.6412236601574e-18
1.3862171831203e-17
6.6462835914873e-17
2.8787135430138e-16
1.1213267011595e-15
4.3153886375607e-15
1.8934467986195e-14
1.0487908652766e-13
6.1264426778574e-13
3.8607389854084e-12
2.1769808969848e-11
1.5559798070162e-10
8.4294010192041e-10
5.2135535288305e-09
1.5603035708726e-08
1.0641072818493e-08
5.0097439251657e-09
2.3536992934463e-09
1.1625150091896e-09
5.4500615169551e-10
2.1019356829603e-10
7.6241763095243e-11
4.1966057086689e-11
3.1965117174877e-11
2.4870930596496e-11
1.7809834549696e-11
1.1257084594664e-11
6.2223061304058e-12
3.1007584597701e-12
1.4686968365068e-12
6.9176473348586e-13
3.3110246227512e-13
1.6130069539488e-13
7.9346666465501e-14
3.9039082253153e-14
1.9066224930703e-14
9.1947108462058e-15
4.358820402348e-15
2.0195295143006e-15
9.0691444926528e-16
3.9063030346995e-16
1.5969806438556e-16
6.1521352783986e-17
2.2310319656593e-17
7.6638681266684e-18
2.5224413054027e-18
8.0538025619989e-19
2.5182932151305e-19
7.752376145752e-20
2.3545512418731e-20
7.0602338263428e-21
2.0909906139909e-21
6.1202977625548e-22
1.7718088370076e-22
5.0772587242902e-23
1.4411860426351e-23
4.0546688553716e-24
1.1312666774021e-24
3.1314969057998e-25
8.6039871541377e-26
2.3473370329359e-26
6.3610955214847e-27
1.71280983362e-27
4.5839058982118e-28
1.2196352703455e-28
3.227018337424e-29
8.4928119542563e-30
2.2236911663698e-30
5.7937284847354e-31
1.5023962758828e-31
3.8782004434601e-32
9.9670651301412e-33
2.5507221212189e-33
6.501017426875e-34
1.6503710849999e-34
4.17369999945e-35
1.0515884793259e-35
2.6404776652232e-36
6.5966625194082e-37
1.6681862538712e-37
3.6076046008645e-38
1.6807923611422e-38
0
0
0
6.1058824720786e-62
4.100453729957e-47
1.4429064849118e-32
1.2118145684094e-30
5.0434397776454e-29
1.385400282405e-27
2.8239369463464e-26
4.5518250807607e-25
6.0374253718695e-24
6.772810556126e-23
6.5548031517163e-22
5.5569277886153e-21
4.1799243480603e-20
2.8202686360007e-19
1.7230130493826e-18
9.5957752126293e-18
4.9155508475028e-17
2.3226367942557e-16
1.0129969114545e-15
4.015423054262e-15
1.4545761854529e-14
4.9918172485406e-14
1.6641551236011e-13
6.8519919505232e-13
2.803550435512e-12
1.2227460085412e-11
6.7238055318245e-11
2.775891542263e-10
2.3667068416847e-09
1.2736872237628e-08
1.0548574521016e-07
1.0115940784418e-07
7.2470933188478e-08
4.6435705138736e-08
2.0965581431677e-08
5.4790000882438e-09
8.1082011796894e-10
1.7018204970115e-10
8.2445553348801e-11
4.9646602475615e-11
3.0334604699206e-11
1.8901550448965e-11
1.1591490575343e-11
6.8366127457445e-12
3.8872836084138e-12
2.1566210827487e-12
1.1816714718495e-12
6.4246655979012e-13
3.4641649951356e-13
1.8476615416643e-13
9.7238675640917e-14
5.0396199201954e-14
2.5660309560085e-14
1.2778166719679e-14
6.1739228320365e-15
2.8618239459058e-15
1.2566648301638e-15
5.1722717619669e-16
1.9860073280182e-16
7.1407359180427e-17
2.432021917972e-17
7.9646475448095e-18
2.5411120563498e-18
7.9630020362018e-19
2.4596589432753e-19
7.4968493731457e-20
2.2555229677554e-20
6.7019195160293e-21
1.9681609789816e-21
5.7173671172061e-22
1.6441717543974e-22
4.6839229140819e-23
1.3226263063865e-23
3.7038316068711e-24
1.0290836937626e-24
2.8380232755651e-25
7.7716208404678e-26
2.1139181858208e-26
5.7132555818517e-27
1.5347050479944e-27
4.0985386807973e-28
1.0884395727498e-28
2.8750889870518e-29
7.5555041110116e-30
1.9757317190411e-30
5.1419320668566e-31
1.3320938082608e-31
3.4357768500054e-32
8.8239695733855e-33
2.2569149064558e-33
5.7496174718664e-34
1.4590962007212e-34
3.6896039317979e-35
9.2816337972552e-36
2.3630379231016e-36
5.1460716387769e-37
2.4137789207168e-37
0
0
0
3.6025740205879e-60
1.3067640659644e-45
5.441907990097e-32
4.5611445818911e-30
1.8914917257647e-28
5.1706108415514e-27
1.0472258327767e-25
1.674813558446e-24
2.2015256133765e-23
2.4447587423764e-22
2.3390685883844e-21
1.956820601933e-20
1.4491551026158e-19
9.591131565963e-19
5.7265397882666e-18
3.1042108017708e-17
1.5423505161831e-16
7.0667791486214e-16
3.0151287159286e-15
1.1901965009801e-14
4.3450286787882e-14
1.4512818943606e-13
4.4596616244555e-13
1.296234172722e-12
3.6393057375141e-12
1.045110856685e-11
2.24364305605e-11
7.2983269045614e-11
5.9995784899193e-10
7.9006209082076e-09
8.6414404216523e-08
1.1367728229792e-06
1.8701682562481e-06
1.3063496965016e-06
5.4558151992704e-07
1.277446978175e-07
2.0934219670826e-08
4.6721928007996e-09
1.3099725566176e-09
3.5118218135344e-10
8.2615236622057e-11
2.5915375940547e-11
1.5111133581124e-11
1.0622514016215e-11
7.2938506353062e-12
4.8399765481371e-12
3.1127468768906e-12
1.9360392517101e-12
1.1689710615733e-12
6.8781007449335e-13
3.9563007231094e-13
2.2294582966755e-13
1.2312874472598e-13
6.6458361893109e-14
3.4805159486849e-14
1.7482644097896e-14
8.3032856788387e-15
3.6786902885378e-15
1.507549675588e-15
5.7176908770706e-16
2.0281801719321e-16
6.843440882726e-17
2.2336802857059e-17
7.1351417136931e-18
2.2432541172009e-18
6.9542255177703e-19
2.1267447498936e-19
6.418930406943e-20
1.9133655801461e-20
5.6376333694696e-21
1.6433429263864e-21
4.7426172961496e-22
1.3559583848388e-22
3.8428755162336e-23
1.0801004293409e-23
3.0120694137892e-24
8.337509029496e-25
2.2916071035202e-25
6.2564036765837e-26
1.6971734081687e-26
4.575829736109e-27
1.2265110198793e-27
3.2691758305291e-28
8.6670234424309e-29
2.2859109602803e-29
5.9991936517717e-30
1.5669374415129e-30
4.0739107835017e-31
1.0544929555987e-31
2.7177848028037e-32
6.9757278186015e-33
1.7832773083078e-33
4.5418783103517e-34
1.1506473518779e-34
2.9496751900875e-35
6.4690367479396e-36
3.0557372383962e-36
0
0
0
3.7018615084464e-60
4.5220094572477e-46
1.7387274227595e-31
1.4610559345492e-29
6.0636538880497e-28
1.6568826931393e-26
3.3489171421659e-25
5.3364424972097e-24
6.9811957852973e-23
7.7064841285379e-22
7.3206748578612e-21
6.0728694527391e-20
4.4515539841353e-19
2.9093190146805e-18
1.7095608212471e-17
9.0837290662458e-17
4.3963230152252e-16
1.951750189789e-15
8.0168914559108e-15
3.0641206658103e-14
1.0928267992766e-13
3.6393021975034e-13
1.1383933800984e-12
3.3934858767275e-12
9.8754959776229e-12
2.0314754167425e-11
3.2789372476567e-11
4.7973732221712e-11
1.7734057698389e-10
4.1344352405483e-09
5.3494628260566e-08
6.9803283442971e-07
5.8176202407352e-06
1.3378398632072e-05
7.5313143502691e-06
2.8206471282662e-06
9.2858441747368e-07
2.3760785047313e-07
4.7689068607855e-08
9.146640310857e-09
1.815599987087e-09
2.3110381741975e-10
2.5037195094313e-11
1.2146405470599e-11
9.890130878265e-12
8.3075358176677e-12
6.2700376560403e-12
4.4520845684853e-12
3.0470743262358e-12
2.0095634705509e-12
1.2829426321601e-12
7.967697157101e-13
4.8279381005927e-13
2.8515876033084e-13
1.6317120371673e-13
8.9424383073164e-14
4.6226802850484e-14
2.2186417332531e-14
9.771286192502e-15
3.9382210209467e-15
1.4653504573975e-15
5.1242124369061e-16
1.7180584587977e-16
5.6082718059022e-17
1.7972812293231e-17
5.6724735797849e-18
1.764756951634e-18
5.4145000414238e-19
1.6394118829432e-19
4.9028900062149e-20
1.4495742159315e-20