/*--------------------------------*- C++ -*----------------------------------*\
  =========                 |
  \\      /  F ield         | OpenFOAM: The Open Source CFD Toolbox
   \\    /   O peration     | Website:  https://openfoam.org
    \\  /    A nd           | Version:  7
     \\/     M anipulation  |
\*---------------------------------------------------------------------------*/
FoamFile
{
    version     2.0;
    format      ascii;
    class       surfaceScalarField;
    location    "1.8";
    object      alphaPhi0.water;
}
// * * * * * * * * * * * * * * * * * * * * * * * * * * * * * * * * * * * * * //

dimensions      [0 3 -1 0 0 0 0];

internalField   nonuniform List<scalar> 
11840
(
0
0
0
0
0
0
0
0
0
0
0
0
0
0
0
0
0
0
0
0
0
0
0
0
0
0
0
0
0
0
0
0
0
0
0
0
0
0
0
0
0
0
0
0
0
0
0
0
0
0
0
0
0
0
0
0
0
0
0
0
0
0
0
0
0
0
0
0
0
0
0
0
0
0
0
0
0
0
0
0
0
0
0
0
0
0
0
0
0
0
0
0
0
0
0
0
0
0
0
0
0
0
0
0
0
0
0
0
0
0
0
0
0
0
0
0
0
0
0
0
0
0
0
0
0
0
0
0
0
0
0
0
0
0
0
0
0
0
0
0
0
0
0
0
0
0
0
0
0
0
0
0
0
0
0
0
0
0
0
0
0
0
0
0
0
0
0
0
0
0
0
0
0
0
0
0
0
0
0
0
0
0
0
0
0
0
0
0
0
0
0
0
0
0
0
0
0
0
0
0
0
0
0
0
0
0
0
0
0
0
0
0
0
0
0
0
0
0
0
0
0
0
0
0
0
0
0
0
0
0
0
0
0
0
0
0
0
5.7745336494101e-202
-1.4915612959388e-207
2.8216356117277e-202
1.4108178058639e-202
7.5851358695156e-202
3.3379560336174e-202
1.3793914140985e-202
6.2055777076519e-202
2.5097406795579e-203
1.1288726982799e-202
7.4575035575931e-203
0
1.0891364901464e-202
0
1.9834159662822e-203
8.8769556495422e-203
3.6156666147033e-204
1.6218378292693e-203
7.2236200018534e-205
2.9189823151765e-204
7.9164622468743e-205
0
6.8960971330938e-205
0
1.3407746760536e-205
5.6615353445716e-205
7.7839607340149e-206
3.8919803670074e-206
5.6554417956492e-206
0
3.7721587650745e-206
0
2.3303857292115e-206
0
1.0818292772933e-206
5.7315449532993e-207
4.8763397135187e-207
2.7145859095281e-207
2.5881071978772e-207
0
1.2980611921993e-207
0
5.2895445166253e-208
2.6505589402527e-208
2.4365864447539e-208
0
9.3534133600021e-209
4.6779860476631e-209
3.507162476015e-209
1.7535812380075e-209
1.2861769630262e-209
6.4309613544898e-210
5.2241760635527e-210
0
2.0573703743239e-210
0
7.0447692015227e-211
3.5223858268721e-211
2.6401518023661e-211
0
8.7105687508444e-212
4.3552844974319e-212
3.1258680924558e-212
0
1.0976713714727e-212
0
3.4466582427418e-213
1.723329122366e-213
1.1677680542698e-213
0
3.5669676463527e-214
1.7834838232293e-214
1.0770598475224e-214
5.385299237637e-215
3.487601357328e-215
0
1.0283487904226e-215
5.1417439521141e-216
3.2306945969969e-216
3.1016389560517e-218
9.315804954015e-217
4.6579024770075e-217
2.7633692788493e-217
3.9107364037962e-218
7.7865228938158e-218
3.8932614469079e-218
2.1764729767138e-218
1.0882364883569e-218
6.0365600151136e-219
3.0182800075568e-219
1.6617614015019e-219
8.3088070075093e-220
4.541526948557e-220
2.2707634742785e-220
1.2325235973067e-220
6.1614678241911e-221
3.3223831864643e-221
1.6611915932322e-221
8.8973773313407e-222
4.4485262931596e-222
2.3676775260082e-222
1.1838387630041e-222
6.2620878823363e-223
3.1310360816622e-223
1.6463979276231e-223
8.2319896381158e-224
4.3037670032762e-224
2.1518827767762e-224
1.1187590630245e-224
5.5937953151226e-225
2.8924808273186e-225
1.4462404136593e-225
7.4390863492584e-226
3.7195431746292e-226
1.9034875196762e-226
9.517437585203e-227
4.8464658842423e-227
2.4232329409678e-227
1.2280208679494e-227
6.1401043397471e-228
3.0970634966272e-228
1.5485317482683e-228
7.7752478662774e-229
3.8876239331387e-229
1.9433541121177e-229
9.716770560571e-230
4.8363188068274e-230
2.4181594034133e-230
1.1985410147987e-230
5.9927050739927e-231
2.9581058723265e-231
1.4790529361632e-231
7.2718245422072e-232
3.6359122711036e-232
1.7806814916344e-232
8.9034074581718e-233
4.3439512388826e-233
2.1719756194413e-233
1.0557973863218e-233
5.2789869316091e-234
2.556894267142e-234
1.278447133571e-234
6.1704902818102e-235
3.0852451409051e-235
1.4840143300287e-235
7.4200716501435e-236
3.5571610663117e-236
1.7785805331559e-236
8.4986554952363e-237
4.2493277476181e-237
2.0240033614117e-237
1.0120016807058e-237
4.8052772828676e-238
2.4026386414338e-238
1.1373724749917e-238
5.6868623749586e-239
2.6840696776842e-239
1.3420348388421e-239
6.3156847701523e-240
3.1578423850761e-240
9.670115700323e-241
0
0
0
0
0
0
0
0
0
0
0
0
0
0
0
0
0
0
0
0
0
0
0
0
0
0
0
0
0
0
0
0
0
0
0
0
0
0
1.3156917601501e-139
6.5784588007507e-140
6.0228137202577e-137
3.0114068601289e-137
5.5879375739841e-137
5.9037490436623e-138
3.8460403508748e-136
1.8969372822779e-136
8.6677586791104e-136
0
1.4950775086991e-136
0
1.4959515480348e-136
0
1.4449647890919e-136
0
4.0959338358089e-138
1.4040054507338e-136
4.0958222164082e-138
0
3.2433517610992e-138
0
2.343352224181e-138
0
1.5814549848079e-138
0
5.0192352297839e-140
1.5312626325101e-138
4.680806785651e-140
0
2.9787368859963e-140
0
1.5442582358341e-140
0
8.6834084320374e-141
0
2.656841613386e-142
8.4177242706988e-141
1.785859924945e-142
0
2.5570066899658e-143
0
2.55582516606e-143
0
3.0895976433915e-144
0
3.0881759306157e-144
0
5.6132339897505e-146
3.0320435907182e-144
3.6055441733949e-146
0
2.2769499252808e-146
0
2.1461007030783e-147
0
8.5609482246041e-148
0
3.0878611913607e-148
0
8.5058528694974e-149
0
4.3709707790006e-149
0
3.5663244114646e-150
0
1.1187021319224e-150
0
7.155561177283e-151
0
3.2225442002295e-151
0
3.8956470496211e-152
2.8329794952674e-151
1.8256955168507e-152
0
5.8036618556718e-154
1.767658898294e-152
5.8458463141469e-154
0
4.5302519440966e-155
5.3930155039679e-154
2.9952143099271e-155
0
1.2909988488873e-155
0
2.2801913622231e-156
1.062979712665e-155
9.447360198207e-157
0
1.7149461403717e-157
7.7324140578353e-157
3.1177616443064e-158
1.4031699759411e-157
1.2375093711868e-158
0
2.249898768105e-159
1.0125194943763e-158
8.7112599456719e-160
0
1.5838596332919e-160
7.12740031238e-160
5.9909917027479e-161
0
2.2171402405394e-161
0
8.039493869524e-162
0
2.8602194316749e-162
0
5.2003989386366e-163
2.3401795378112e-162
9.4552707874506e-164
4.2548718598915e-163
3.3046452182277e-164
0
1.1359171202868e-164
0
2.0653038549759e-165
9.2938673478926e-165
6.9889642552458e-166
0
1.2707207736806e-166
5.7182434815653e-166
4.237124310389e-167
0
7.7038623825252e-168
1.7333690360684e-167
2.5331528747789e-168
0
8.2195148875948e-169
0
2.6334764324802e-169
0
8.3358454825125e-170
0
1.5156082695477e-170
6.8202372129648e-170
4.7419766523446e-171
0
1.4671690641797e-171
0
2.6675801166904e-172
1.2004110525107e-171
8.1651994780928e-173
0
1.7859502515971e-173
8.0367761321872e-173
5.0466811703998e-174
0
1.4503128529973e-174
0
4.2014077050025e-175
0
1.2196105087984e-175
0
2.2174736523607e-176
9.9786314356231e-176
6.5292259373227e-177
0
0
0
0
0
0
0
0
0
0
0
0
0
0
0
0
0
0
0
0
0
0
0
0
0
0
0
0
0
0
0
0
0
0
0
0
-1.6129822992115e-79
-8.0649114960576e-80
-1.1437430863053e-78
-5.7187154315265e-79
-3.5991803581211e-78
-1.7995901790605e-78
-7.0091823447174e-78
-3.5045911723587e-78
-9.805219566078e-78
-4.902609783039e-78
-1.0740768006441e-77
-5.3703840032203e-78
1.4522526435928e-62
6.8933615786904e-63
4.9600944878845e-62
4.3561106945028e-62
3.0740851744187e-61
2.0613738107916e-61
1.785669929754e-60
1.2122239292047e-60
9.6853325893563e-60
6.7979392401151e-60
3.6684903259928e-59
2.4943410103243e-59
5.3614540954267e-58
3.3749619875233e-58
8.3228555515153e-56
4.4706749278102e-56
5.7324898687628e-55
3.8799415547145e-55
2.8652959518718e-54
1.912927795705e-54
2.9198730179282e-53
1.7128362964013e-53
1.2016708104406e-52
8.2249781132464e-53
7.6852313359169e-52
4.6485055732047e-52
2.800934384399e-51
2.0254986917079e-51
8.8020274859933e-51
6.3937421509563e-51
3.1182186578344e-50
2.1558664647829e-50
7.3930930157272e-50
5.6884243783057e-50
1.8022447562656e-49
1.4427637801594e-49
3.0823140004937e-49
2.5347704859473e-49
4.272960072289e-49
2.9250223062904e-49
9.090195935779e-49
6.276763297388e-49
1.5060614941068e-48
1.1855953447361e-48
2.2808825713066e-48
1.7073700074717e-48
3.3792985843754e-48
1.8213859161529e-48
6.0417024609319e-48
2.9063036509724e-48
5.590964455345e-48
5.6682276902828e-48
4.5857643996295e-48
4.8951348815797e-48
4.0910008283202e-48
4.0508784288225e-48
3.4152954824527e-48
2.828258160071e-48
1.8035601603037e-48
2.0612160914185e-48
5.597135637299e-49
1.0390123400369e-48
9.9094737711394e-50
2.9726447151591e-49
1.4160784723353e-50
6.4914999341123e-50
3.3824691843371e-51
8.8245045174628e-51
5.4824246231751e-52
2.7040632681351e-51
1.3643297518544e-52
3.5264967036675e-52
2.174136538553e-53
1.0953612463186e-52
4.1629684363598e-54
1.6736158449053e-53
1.0403693699756e-54
2.6817662140309e-54
1.6495049641247e-55
8.3725325462766e-55
4.2475269514128e-56
1.0545044959074e-55
7.8300976542898e-57
3.309975569512e-56
1.2415742927937e-57
6.3322821606576e-57
3.1080972841507e-58
7.9854285071001e-58
4.8940946938051e-59
2.5025827121803e-58
1.2622285164912e-59
3.1224695307094e-59
2.3246488987576e-60
9.8285891574793e-60
3.7134930937879e-61
1.8754956349657e-60
8.531896277729e-62
2.4195996852526e-61
1.6199426551397e-62
6.2052636272585e-62
4.0317012017386e-63
1.0117591848082e-62
7.3982615760772e-64
3.1290753435515e-63
1.1550866607745e-64
5.9800870332167e-64
2.9975337174626e-65
7.3455187426638e-65
5.5875614480978e-66
2.321988911158e-65
1.0678309844182e-66
4.3791028726503e-66
1.9661033935231e-67
8.3455222959438e-67
2.9665732409228e-68
1.5975425979108e-67
5.9819770646404e-69
2.2345092935701e-68
1.414762605453e-69
3.8496169449575e-69
3.1764550811367e-70
8.7506822553596e-70
6.5221087571353e-71
1.9652294324759e-70
1.5324626943055e-71
3.9040013744356e-71
2.8024075242233e-72
1.179947606445e-71
4.3683413388446e-73
2.253947824288e-72
1.0102732278083e-73
2.8059599584023e-73
2.3416047362118e-74
6.1719053553748e-74
3.5102455237846e-75
1.8755050808671e-74
6.9123553965423e-76
2.6380360146524e-75
1.5985286745833e-76
4.4305607680467e-76
3.4658674146125e-77
9.859233332375e-77
6.7806434824611e-78
2.3647536230932e-77
1.6005259211401e-78
4.1737689590069e-78
2.4816961759591e-79
1.2755894062409e-78
5.561771587473e-80
1.5903002628824e-79
1.4054744241709e-80
3.3426812469108e-80
1.0511156884077e-80
0
0
0
0
0
0
0
0
0
0
0
0
0
0
0
0
0
0
8.6469986375851e-51
4.376652212776e-51
3.5696992789266e-49
1.9559292148455e-49
2.3682460363304e-48
1.304309178525e-48
5.2866945797221e-47
2.9435478484011e-47
1.7741722874553e-46
1.7768026621869e-46
1.6530859447507e-46
1.9092691576426e-46
3.4959295833804e-47
1.0509738482436e-46
1.3958155456688e-47
2.1001140377116e-47
8.6702203747584e-45
6.2778171201752e-45
1.5722019196345e-45
7.0980184396774e-45
2.8677254887952e-46
1.285429370755e-45
5.2140429574804e-47
2.3463211930471e-46
9.4806291701839e-48
4.265980040462e-47
6.960577519195e-46
0
1.2655606631815e-46
5.6950168560135e-46
2.301019381303e-47
1.0354587250512e-46
4.1836716133619e-48
1.8826522199669e-47
7.606675661463e-49
3.4230040472189e-48
1.3830319385111e-49
6.22364372313e-49
2.5146035267157e-50
1.131571586512e-49
4.5720066853552e-51
2.0574029523266e-50
1.1259364054194e-47
0
2.0471575578387e-48
9.2122078632369e-48
3.7221207085239e-49
1.6749506733021e-48
3.7767833524538e-47
0
6.8669870312651e-48
3.090112113825e-47
2.1336350303273e-43
0
2.1338050919489e-43
0
7.791383172096e-45
2.0558914601893e-43
7.9554193133738e-45
0
1.4465023732668e-45
6.5090822693213e-45
1.5860836347154e-46
1.2882425512088e-45
2.8247437149267e-47
0
9.0962662684988e-48
1.9803125556881e-47
1.5223484907464e-48
9.0942490270649e-48
2.7984939098372e-47
0
6.8112737976092e-48
1.3781618788139e-47
3.8546758395341e-48
3.6015601780739e-48
8.4253598789335e-48
4.2442896329742e-48
2.522917958852e-46
0
6.5493110821636e-47
0
6.5193282330601e-47
0
1.2675575282223e-47
5.4737683330338e-47
1.4954628595605e-47
2.6233054172446e-49
3.4186472749553e-48
0
3.6348071669352e-48
0
5.8482003404845e-49
3.0886507663345e-48
4.2072216059295e-49
0
6.1421524076428e-50
3.6120141052871e-49
4.2543211936397e-50
0
1.0439016718791e-51
4.1576308806222e-50
1.0545477096013e-51
0
6.8199267331802e-52
0
9.6304744364725e-53
5.8627550674165e-52
6.0651115923915e-53
0
1.1042868701711e-53
4.9631321753336e-53
1.5401147902865e-54
9.5072059429276e-54
9.5102295415717e-55
0
1.2968267939175e-55
8.215138145459e-55
8.157756900507e-56
0
2.5408562095213e-57
7.9043474518025e-56
2.5415743605998e-57
0
3.2609050636202e-58
0
3.2598876643475e-58
0
1.9926516388582e-58
0
3.4100103267463e-59
1.6516715576898e-58
6.2002962217437e-60
2.790021197989e-59
9.8289155971376e-61
0
9.8256847233705e-61
0
3.2502023026985e-62
9.5006940926511e-61
3.2491398535575e-62
0
1.2889029309945e-63
3.1202602757658e-62
1.17802662184e-63
0
2.6534928799806e-64
0
9.6254425622615e-65
0
8.7137923767647e-65
0
1.3559821608559e-65
0
1.3555286447101e-65
0
2.5686048390613e-67
1.3298427386468e-65
1.8220039003845e-67
0
1.3483157770291e-67
0
5.3958595284094e-69
1.2943572965506e-67
4.95587858098e-69
0
1.3467602547176e-69
0
5.5216121976125e-70
0
5.233181362371e-70
0
8.3342212991921e-71
0
8.3315604788303e-71
0
1.0097317414212e-71
0
8.1649299987316e-72
0
0
0
0
0
0
0
0
0
0
0
0
0
0
0
0
2.6310465016114e-41
1.3176128250626e-41
2.0736473439324e-39
1.0491734905692e-39
7.9657253714544e-38
4.0784886050356e-38
1.9824453617353e-36
1.028289177417e-36
3.6100244192087e-35
1.8987451620821e-35
5.1041704080976e-34
2.7267527906303e-34
5.7268852901604e-33
3.1139607817539e-33
5.2304498998426e-32
2.892617046973e-32
4.1616707934984e-31
2.3260321428731e-31
3.1591838572067e-30
1.770423896962e-30
2.3872307398913e-29
1.3383535850589e-29
1.7508624688125e-28
9.8611745059877e-29
1.1928408266337e-27
6.7890728823145e-28
7.3191635636677e-27
4.2297400716462e-27
3.9800611142181e-26
2.3441254814228e-26
1.9066896502742e-25
1.1477689327487e-25
8.0444190527309e-25
4.9603346188602e-25
2.9958462174717e-24
1.8956284100323e-24
9.881354814869e-24
6.425770750382e-24
2.8982466775096e-23
1.9393825869656e-23
7.5956681398148e-23
5.2347980845001e-23
1.7892882140364e-22
1.2705152442174e-22
3.8162138842485e-22
2.791130413816e-22
7.4313850783089e-22
5.593644404964e-22
1.3326336658842e-21
1.0312113557036e-21
2.2158238056451e-21
1.7618053194465e-21
3.4228697152656e-21
2.8009647296308e-21
4.8631870723996e-21
4.1285075044214e-21
6.1349553612611e-21
5.5201808294584e-21
6.6379447113944e-21
6.4187678859514e-21
6.6675654465331e-21
6.5943106327124e-21
6.5050277930416e-21
6.5049920780888e-21
5.9635699381903e-21
6.1463131243376e-21
4.9218482642567e-21
5.3501434267676e-21
3.5236999523564e-21
4.1372426490685e-21
2.0968976068592e-21
2.7355650982467e-21
9.9638341837548e-22
1.4886929021286e-21
3.7138295283959e-22
6.4836353578821e-22
1.1291206643787e-22
2.2741145073471e-22
3.0903523077113e-23
6.8133343673049e-23
8.3904448391924e-24
1.9045911987891e-23
2.3621725417542e-24
5.3144265965135e-24
6.9237818639531e-25
1.5233167700697e-24
2.0965395491308e-25
4.507815445942e-25
6.5087535746682e-26
1.3726135082949e-25
2.0568227629614e-26
4.2762764542149e-26
6.5590857863552e-27
1.3529420944164e-26
2.0901282691586e-27
4.3074920100488e-27
6.5956723948317e-28
1.3670252170618e-27
2.0481599095537e-28
4.2902199277202e-28
6.2415738462495e-29
1.3248063129581e-28
1.8671091230294e-29
4.0178892340268e-29
5.4934073317744e-30
1.197473530577e-29
1.5933546575626e-30
3.5133780769259e-30
4.5644857459135e-31
1.016750437542e-30
1.2930668179395e-31
2.9067772612691e-31
3.6253359325862e-32
8.2185418585973e-32
1.0065490719572e-32
2.2998680299283e-32
2.7689877288296e-33
6.3739691349758e-33
7.5516939074308e-34
1.750517477674e-33
2.0428416501148e-34
4.7666308987474e-34
5.4840795139133e-35
1.2875662424267e-34
1.461643281539e-35
3.4517995834466e-35
3.8691671037439e-36
9.1880642948342e-36
1.0176197183229e-36
2.4292444175449e-36
2.660025310152e-37
6.3817258024353e-37
6.9126931194205e-38
1.6663375675551e-37
1.7864422158132e-38
4.3258630370862e-38
4.5921982334833e-39
1.1168234266977e-38
1.1744748851881e-39
2.8681792138435e-39
2.989182019636e-40
7.3288871838836e-40
7.572406326374e-41
1.8636848790866e-40
1.9097203534708e-41
4.7173250684352e-41
4.795522418147e-42
1.1887439014946e-41
1.1992324833651e-42
2.9828055277674e-42
2.9870238116449e-43
7.4537674008969e-43
7.4114684047012e-44
1.8552681973503e-43
1.8321405901537e-44
4.600226435751e-44
4.512918943521e-45
1.1364526780962e-44
1.1077775442158e-45
2.7975493247152e-45
2.7101482354219e-46
6.8629352512589e-46
6.6088438959343e-47
1.6780173446732e-46
1.6065487793016e-47
4.0896240455401e-47
3.8934987137323e-48
9.9360617261852e-48
9.4081326472492e-49
2.4067469644418e-48
2.2668449973715e-49
5.812607600034e-49
5.4466561153551e-50
1.3998245415892e-49
1.3051847636929e-50
3.3617869048167e-50
3.118757962691e-51
8.0524602474521e-51
7.4481762200927e-52
1.9224175097365e-51
1.7398322648589e-52
4.608847422345e-52
4.8329233876986e-53
1.0296601784919e-52
3.8025678903799e-53
0
0
0
0
0
0
0
0
0
0
0
0
2.4031857582271e-41
1.1982880028457e-41
2.7867901104348e-39
1.3892510384851e-39
1.451020531114e-37
7.2690069020543e-38
4.7071864386212e-36
2.3767253966701e-36
1.0841804390094e-34
5.5289900538344e-35
1.910842355631e-33
9.8583997122856e-34
2.6862462373984e-32
1.4047224618088e-32
3.0711948417709e-31
1.6312046074715e-31
2.9136807107924e-30
1.5744958706757e-30
2.3354648259827e-29
1.2846850204008e-29
1.6215562069346e-28
9.0335619762691e-29
1.0609402344618e-27
5.916921425329e-28
7.0892904740248e-27
3.9329092425672e-27
4.6945529045504e-26
2.6096162509774e-26
2.894879213825e-25
1.6311370434588e-25
1.6273791109262e-24
9.3309516356474e-25
8.2262717997719e-24
4.8132207167476e-24
3.6852168971427e-23
2.2089987137864e-23
1.4479964485755e-22
8.9264407269406e-23
4.9654632212564e-22
3.1581660882869e-22
1.485161881692e-21
9.7690281254213e-22
3.8871895364777e-21
2.647807855476e-21
8.9732733441846e-21
6.3273823260126e-21
1.851018927285e-20
1.3477715884352e-20
3.4716680283586e-20
2.5989149148184e-20
6.0261541559054e-20
4.6169401789526e-20
9.8062216610351e-20
7.6697369276316e-20
1.5011179078638e-19
1.2006330078662e-19
2.138358247976e-19
1.7647950297407e-19
2.7361681709061e-19
2.3819929100196e-19
3.012347620072e-19
2.8222267392472e-19
3.03445842085e-19
2.9325056649584e-19
2.9788964401964e-19
2.9034287258512e-19
2.7601157788625e-19
2.7662287357062e-19
2.3139195918051e-19
2.4399192675448e-19
1.6922156206998e-19
1.9214379202771e-19
1.0364531002719e-19
1.3016991432438e-19
5.1226068284519e-20
7.3189404382943e-20
2.0088032283076e-20
3.3274460830498e-20
6.4627361944007e-21
1.2288441608589e-20
1.8633648831448e-21
3.8829362292914e-21
5.2839014400277e-22
1.1388929059898e-21
1.5471685959586e-22
3.3162889190769e-22
4.7222953701907e-23
9.9052130002407e-23
1.4943630922535e-23
3.0603073557334e-23
4.8632081200208e-24
9.7585269347297e-24
1.6126138443662e-24
3.1902593911443e-24
5.3895004295746e-25
1.0592565497469e-24
1.794696417654e-25
3.5327593176865e-25
5.8955192908832e-26
1.1707195194533e-25
1.8976763752641e-26
3.8214943763249e-26
5.9684559998027e-27
1.2221708954369e-26
1.8350736623092e-27
3.8225229814884e-27
5.5293177609902e-28
1.1702238885709e-27
1.637705624076e-28
3.5148475607858e-28
4.7806435698048e-29
1.0385168262522e-28
1.3779360725504e-29
3.0252732678329e-29
3.9262851850267e-30
8.7029294058963e-30
1.1068672419178e-30
2.4751499214068e-30
3.0892668802575e-31
6.9651359021766e-31
8.5414184268367e-32
1.9406589606385e-31
2.3408775548516e-32
5.3571729561623e-32
6.3627352519915e-33
1.4660410957164e-32
1.7161053575878e-33
3.9793890242191e-33
4.5948696354864e-34
1.0719102131726e-33
1.2218139110858e-34
2.8665643956054e-34
3.2277238270061e-35
7.6137151305404e-35
8.4740344219812e-36
2.0091743415547e-35
2.2116577514116e-36
5.2694552462713e-36
5.739845234733e-37
1.3739477414786e-36
1.4816588648762e-37
3.5624599018111e-37
3.8050884477495e-38
9.187864852273e-38
9.7239987113417e-39
2.3575738465055e-38
2.4733008363741e-39
6.0199920642879e-39
6.2624331953732e-40
1.5300075904019e-39
1.5787742938979e-40
3.8711450692857e-40
3.9635051326135e-41
9.7523486002402e-41
9.910335268957e-42
2.4466603776992e-41
2.4683672074363e-42
6.1136303975382e-42
6.1249542882713e-43
1.5217661714312e-42
1.5143396330609e-43
3.7737961111276e-43
3.7309856736309e-44
9.3249344770985e-44
9.1612197104428e-45
2.2961589229346e-44
2.2421223373368e-45
5.6350264119519e-45
5.4699828979498e-46
1.3783966891361e-45
1.3303788484185e-46
3.3610941300494e-46
3.2260226270616e-47
8.1706561646392e-47
7.8000805749451e-48
1.9803542835712e-47
1.880687131981e-48
4.7859993639635e-48
4.5212158766965e-49
1.1534959798458e-48
1.0862020487132e-49
2.7705946062606e-49
2.5519736394634e-50
6.6822590694847e-50
7.1348656086641e-51
1.5011398373043e-50
5.5877186711127e-51
0
0
0
0
0
0
0
0
0
0
1.0698315410675e-41
5.2998507983267e-42
1.7036389641217e-39
8.4014203998832e-40
1.1466670116056e-37
5.6541694149612e-38
4.6189436177935e-36
2.2847795076417e-36
1.294574605845e-34
6.4389889367355e-35
2.737123370464e-33
1.3715613021402e-33
4.5927944473697e-32
2.3225962703805e-32
6.3079242471924e-31
3.2255103745322e-31
7.2105639779382e-30
3.73572750074e-30
6.977638444457e-29
3.6712604498413e-29
5.7375356589003e-28
3.0724158038614e-28
4.0502230223048e-27
2.2088565016614e-27
2.5192420107751e-26
1.3943234916378e-26
1.4456384408679e-25
7.9873785703404e-26
8.9089705128822e-25
4.8285765273529e-25
6.2262112226859e-24
3.3401696680857e-24
3.95032967584e-23
2.1805877639287e-23
2.1646407248315e-22
1.241585929245e-22
1.0520705071476e-21
6.2132007003017e-22
4.5163683838198e-21
2.7442296632604e-21
1.6766070046223e-20
1.0537081991681e-20
5.2759016742594e-20
3.4533724809701e-20
1.3885817550367e-19
9.5321900693324e-20
3.044312365441e-19
2.202408650284e-19
5.6293338752606e-19
4.2847755149698e-19
9.1024680006064e-19
7.2026988845841e-19
1.3566995178213e-18
1.0952723248479e-18
1.9582998030384e-18
1.5857957716007e-18
2.8161594210727e-18
2.2679377659962e-18
4.0069593038928e-18
3.2292213056447e-18
5.3745331199772e-18
4.4528876847321e-18
6.2890085155572e-18
5.5835064845513e-18
6.4406806118699e-18
6.0496485807937e-18
6.4002090016696e-18
6.0492578492807e-18
6.0246431437713e-18
5.8392537457574e-18
5.1690158085098e-18
5.2556334480547e-18
3.8745492329031e-18
4.2358766680579e-18
2.4414735775907e-18
2.9454775243944e-18
1.2486918543916e-18
1.7069710991437e-18
5.1091970737035e-19
8.0510169069852e-19
1.7275609501869e-19
3.1081757934168e-19
5.2427857106305e-20
1.0317494920077e-19
1.5598352261465e-20
3.1795063394552e-20
4.7800609551193e-21
9.7085617467295e-21
1.5274928026826e-21
3.038871130949e-21
5.070288701246e-22
9.8500952590053e-22
1.7332183844302e-22
3.3002428946628e-22
6.0358850764707e-23
1.1342832098998e-22
2.1151087755647e-23
3.9560137058874e-23
7.3666332950977e-24
1.3831469022743e-23
2.5235494294471e-24
4.7923924441175e-24
8.4418525405645e-25
1.6304941712172e-24
2.7483385599012e-25
5.4152392763898e-25
8.7086417051962e-26
1.7515890939118e-25
2.6927983585938e-26
5.5215931326029e-26
8.1553192915107e-27
1.7008712603581e-26
2.4277917900904e-27
5.137161056391e-27
7.1235140013963e-28
1.52605039164e-27
2.0637489404936e-28
4.4691937328883e-28
5.9098589304685e-29
1.2923964733118e-28
1.6741446068389e-29
3.6943381692455e-29
4.694601374581e-30
1.0447371536278e-29
1.304002204093e-30
2.9249376743628e-30
3.5900685751456e-31
8.1124671300904e-31
9.8021130526104e-32
2.2303959025834e-31
2.6555186316813e-32
6.081964602321e-32
7.1414507030004e-33
1.6457079051578e-32
1.9072389467638e-33
4.4207838371803e-33
5.0601456127279e-34
1.1793830270008e-33
1.3341482985512e-34
3.1258994304573e-34
3.4967155725958e-35
8.2338234609514e-35
9.1128202050592e-36
2.1560782091587e-35
2.3620722089417e-36
5.6141407921317e-36
6.0909416288165e-37
1.4540118164553e-36
1.5628669483594e-37
3.746451049836e-37
3.9911170045239e-38
9.6058068838704e-38
1.014575210956e-38
2.4513017696143e-38
2.5678419013496e-39
6.2271638997333e-39
6.4717012153777e-40
1.5750357411329e-39
1.6244341707453e-40
3.9670548442285e-40
4.0614624205403e-41
9.9515392793507e-41
1.0116232847514e-41
2.4866753431984e-41
2.5105401190122e-42
6.1903250318722e-42
6.2084074599686e-43
1.5354253341702e-42
1.5300574831758e-43
3.7950459543382e-43
3.7583468570188e-44
9.3481952432114e-44
9.2022096159389e-45
2.2951313960631e-44
2.2461353061566e-45
5.6169494944868e-45
5.465971103708e-46
1.3704049463524e-45
1.3262782213532e-46
3.3334123092826e-46
3.208299980469e-47
8.0852407424319e-47
7.7551272050503e-48
1.9541640706856e-47
1.8328583271524e-48
4.7423212311322e-48
5.1585842199766e-49
1.0713705570327e-48
4.0207399563512e-49
0
0
0
0
0
0
0
0
0
0
4.3413561856418e-40
2.1000090755003e-40
4.8745280216122e-38
2.3590820743e-38
2.6233220524087e-36
1.2723572325313e-36
9.0666431194217e-35
4.413950566695e-35
2.2759652356889e-33
1.1136188326548e-33
4.4426020186182e-32
2.1872982429135e-32
7.0425167713074e-31
3.4930988381764e-31
9.3220033647848e-30
4.6649628159769e-30
1.0470917393195e-28
5.2958633184018e-29
1.0129316597999e-27
5.189654420932e-28
8.4386460267479e-27
4.3900421327841e-27
6.1184630933174e-26
3.2398350133476e-26
3.859155137343e-25
2.0862467030172e-25
2.1143779465252e-24
1.157760682393e-24
1.1390577590945e-23
6.1924504196371e-24
6.6088970922386e-23
3.4334865387278e-23
5.7733962392188e-22
2.8916859323628e-22
6.3191330426056e-21
3.225848306572e-21
5.286239058013e-20
2.8296253144236e-20
3.025827209521e-19
1.750014046561e-19
1.3419790361041e-18
8.1903857815406e-19
4.7130985365964e-18
3.0363113486002e-18
1.2933553034432e-17
8.8978199951424e-18
2.6879354743807e-17
2.0242991530747e-17
3.9846782100527e-17
3.418784953303e-17
4.3400828345099e-17
4.1819161970361e-17
4.3751313848857e-17
4.2362544124484e-17
4.4249590945883e-17
4.2374546579921e-17
4.6866150351062e-17
4.3308945526218e-17
5.3569425021335e-17
4.694213405012e-17
6.5740743225839e-17
5.5282959011178e-17
7.9686671427575e-17
6.7496800331123e-17
8.5403796891262e-17
7.6862744497117e-17
8.5634298374342e-17
7.8455511757379e-17
8.2213926660608e-17
7.6763209504594e-17
7.2406256800073e-17
7.0647975173774e-17
5.5668242756578e-17
5.8365204710278e-17
3.5987483367701e-17
4.1617402260276e-17
1.8931662934543e-17
2.4758608466985e-17
8.0301366553537e-18
1.2046612799298e-17
2.8443151252525e-18
4.8396505996387e-18
9.1051787189131e-19
1.6865008331587e-18
2.8594137657132e-19
5.4804920002892e-19
9.2332636667517e-20
1.76555486601e-19
3.1069749679591e-20
5.8283601574308e-20
1.0863374827898e-20
1.9927078658703e-20
3.9110267958932e-21
7.0427495223257e-21
1.4325415213189e-21
2.5511522910385e-21
5.2687237135139e-22
9.3604047768394e-22
1.9216081287815e-22
3.4351097082622e-22
6.8780289828585e-23
1.2464217329249e-22
2.3978622048657e-23
4.4302220676385e-23
8.1076446904328e-24
1.5325968310809e-23
2.6565351556229e-24
5.1438021934769e-24
8.4536290802864e-25
1.674956329023e-24
2.623404569236e-25
5.3053425032121e-25
7.9754629568004e-26
1.6411160772511e-25
2.3843045599462e-26
4.9778508818472e-26
7.0275614356597e-27
1.4854014071564e-26
2.0453227753426e-27
4.3704692715217e-27
5.8837701973477e-28
1.2697824994119e-27
1.674215269361e-28
3.6465577787566e-28
4.7155473096537e-29
1.0359496054415e-28
1.3155677060714e-29
2.913479634352e-29
3.6377308594409e-30
8.1170350916435e-30
9.9754322639739e-31
2.2416284228321e-30
2.714156206077e-31
6.1397489452596e-31
7.330490584966e-32
1.6686729846632e-31
1.966072912082e-32
4.5021012741101e-32
5.2383179692867e-33
1.2062951349485e-32
1.3869263865053e-33
3.2110077973789e-33
3.6501937120418e-34
8.4941568519231e-34
9.5521308192064e-35
2.2336756110488e-34
2.4860954663249e-35
5.8406351111442e-35
6.4368202874674e-36
1.5189730619439e-35
1.6582740122139e-36
3.9299918408056e-36
4.251684660375e-37
1.01176332731e-36
1.0850957383725e-37
2.5923843989005e-37
2.7571109619739e-38
6.612025571619e-38
6.9757600850959e-39
1.6790374184996e-38
1.7577104116195e-39
4.2456882978265e-39
4.4114857251336e-40
1.0692134531077e-39
1.1029699602406e-40
2.682081208472e-40
2.7475131223921e-41
6.702387589316e-41
6.819711560477e-42
1.6687556822758e-41
1.6869115508937e-42
4.1401296712093e-42
4.1587797229974e-43
1.0236290019143e-42
1.0219547674701e-43
2.5224667894748e-43
2.5034042452136e-44
6.1959411635357e-44
6.1138433067247e-45
1.5171434439366e-44
1.4884027520388e-45
3.7038886999347e-45
3.6203946582255e-46
9.0095236504338e-46
8.6085070089856e-47
2.2002726810603e-46
2.4394782892849e-47
4.9994423844064e-47
1.8921372643834e-47
0
0
0
0
0
0
0
0
6.911602492504e-53
1.9723164083082e-53
8.4277211853755e-39
3.9713020675097e-39
8.2053928410948e-37
3.8810913186889e-37
3.9348272424934e-35
1.8693707770932e-35
1.2377748992151e-33
5.9105127735282e-34
2.8734986717527e-32
1.3800049687003e-32
5.2533712999529e-31
2.5387853136715e-31
7.8877776567318e-30
3.8378890812461e-30
1.0001420567187e-28
4.9030818287228e-29
1.0907432243579e-27
5.393439765103e-28
1.0379052624273e-26
5.1854005770491e-27
8.6317472858653e-26
4.3668146471995e-26
6.3327594317703e-25
3.2525801086313e-25
4.0753560577792e-24
2.1334715710974e-24
2.2786128521636e-23
1.2170170364987e-23
1.1545641535027e-22
6.2644562668465e-23
5.501457406213e-22
2.879073819841e-22
4.3304516000249e-21
2.0730226851152e-21
5.2633264773319e-20
2.4256082933238e-20
5.113058973058e-19
2.3893451841296e-19
7.1913084253411e-18
3.4718665245152e-18
5.5093538771551e-17
2.9079248228737e-17
2.571692693696e-16
1.4979035048705e-16
7.9573889770518e-16
5.194226927324e-16
1.5115853268715e-15
1.181846655718e-15
1.7262745584716e-15
1.6440700685746e-15
1.7290371754246e-15
1.6721312982085e-15
1.4823037851924e-15
1.5295496309751e-15
1.0678915643884e-15
1.2038453416548e-15
7.0789647955387e-16
8.0152950648143e-16
6.3483848709511e-16
6.0084589571006e-16
6.4706862475673e-16
5.8305591879238e-16
7.2215772128619e-16
6.1734395531652e-16
7.8873578969368e-16
6.8041014872175e-16
7.9655877435948e-16
7.0531479135648e-16
7.768948908831e-16
6.9635903644343e-16
6.9911161369984e-16
6.5229954389885e-16
5.5071078387476e-16
5.5140665260665e-16
3.6508224855588e-16
4.0304341462508e-16
1.9758582137873e-16
2.4623740821887e-16
8.6918465469303e-17
1.2365853549621e-16
3.2289420052825e-17
5.174133134315e-17
1.0933270075941e-17
1.8964979195499e-17
3.6409187758255e-18
6.5226933493453e-18
1.2458881009076e-18
2.2286196576014e-18
4.4391665693548e-19
7.8047947999973e-19
1.6421894376308e-19
2.8298655384645e-19
6.2451086738928e-20
1.0593793100134e-19
2.4102895704195e-20
4.055677067156e-20
9.3168315566963e-21
1.5683749676875e-20
3.5643607711143e-21
6.0514502206157e-21
1.336368000103e-21
2.3043848764398e-21
4.8722476019754e-22
8.5822347470204e-22
1.7181606659347e-22
3.1042773180695e-22
5.8470548700865e-23