/*--------------------------------*- C++ -*----------------------------------*\
  =========                 |
  \\      /  F ield         | OpenFOAM: The Open Source CFD Toolbox
   \\    /   O peration     | Website:  https://openfoam.org
    \\  /    A nd           | Version:  7
     \\/     M anipulation  |
\*---------------------------------------------------------------------------*/
FoamFile
{
    version     2.0;
    format      ascii;
    class       volScalarField;
    location    "3.3";
    object      alpha.water;
}
// * * * * * * * * * * * * * * * * * * * * * * * * * * * * * * * * * * * * * //

dimensions      [0 0 0 0 0 0 0];

internalField   nonuniform List<scalar> 
6000
(
0
0
0
0
0
0
0
0
0
0
0
0
0
0
0
0
0
0
0
0
0
0
0
0
0
0
0
0
0
0
0
0
0
0
0
0
0
0
0
0
0
0
0
0
0
0
0
0
0
0
0
0
0
0
0
0
0
0
0
0
0
0
0
0
0
0
0
0
0
0
0
0
0
0
0
0
0
0
0
0
0
0
0
0
0
0
0
0
0
0
0
0
0
0
0
0
0
0
0
0
0
0
0
0
0
0
0
0
0
0
0
0
0
0
0
0
0
0
0
0
0
0
0
0
0
0
0
0
0
0
0
0
0
0
0
0
0
0
0
0
0
0
0
0
0
0
0
0
0
0
0
0
0
0
0
0
0
0
0
0
0
0
0
0
0
0
0
0
0
0
0
0
0
0
0
0
0
0
0
0
0
0
0
0
0
0
0
0
0
0
0
0
0
0
0
0
0
0
0
0
0
0
0
0
0
0
0
0
0
0
0
0
0
0
0
0
0
0
0
0
0
0
0
0
0
0
0
0
0
0
0
0
0
0
0
0
0
0
0
0
0
0
0
0
0
0
0
0
0
0
0
0
0
0
0
0
0
0
0
0
0
0
0
0
0
0
0
0
0
0
0
0
0
0
0
0
0
0
0
0
0
0
0
0
0
0
0
0
0
0
0
0
0
0
0
0
0
0
0
0
0
0
0
0
0
0
0
0
0
0
0
0
0
0
0
0
0
0
0
0
0
0
0
0
0
0
0
0
0
0
0
0
0
0
0
0
0
0
0
0
0
0
0
0
0
0
0
0
0
0
0
0
0
0
0
0
0
0
0
0
0
0
0
0
0
0
0
0
0
0
0
0
0
0
0
0
0
0
0
0
0
0
0
0
0
0
0
0
0
0
0
0
0
0
0
0
0
0
0
0
0
0
0
0
0
0
0
0
0
5.7112062296648e-80
6.0767845525175e-78
3.2043215537865e-76
1.1220359352878e-74
2.9370025314693e-73
6.1256990718597e-72
1.060654576657e-70
1.5682490204214e-69
2.0211206746739e-68
2.3062613646899e-67
2.3592773291818e-66
2.1855230836188e-65
1.8485007979724e-64
1.437463213801e-63
1.0338579646942e-62
6.9123167593995e-62
4.3153145160054e-61
2.5253448517803e-60
1.390101104536e-59
7.2197496625159e-59
3.5477098220851e-58
1.6534936909789e-57
7.3259448004974e-57
3.0918818484248e-56
1.2453588497038e-55
4.7953984639602e-55
1.7680808215074e-54
6.2511776786193e-54
2.1222295129392e-53
6.9269202039448e-53
2.1762783544526e-52
6.5885530188648e-52
1.9240276222094e-51
5.4249365162187e-51
1.4781929857996e-50
3.8957281438357e-50
9.9383377728677e-50
2.4560311904096e-49
5.8838032548868e-49
1.3673480538535e-48
3.0844243038568e-48
6.7578188582689e-48
1.4388863301806e-47
2.9790086638686e-47
6.0002450733168e-47
1.1763431626077e-46
2.245807932287e-46
4.1771642019327e-46
7.5726658926449e-46
1.3386101776277e-45
2.3081795567078e-45
3.8838293417842e-45
6.3794555451937e-45
1.0232742268604e-44
1.60335798234e-44
2.4549300147906e-44
3.6741101649975e-44
5.3764897962171e-44
7.6949073071614e-44
1.0774210228812e-43
1.4762515229011e-43
1.97988082809e-43
2.5997315858357e-43
3.3429668481444e-43
4.2106509435586e-43
5.1960820411832e-43
6.2835553976448e-43
7.4477824197958e-43
8.6542014236591e-43
9.8602818990371e-43
1.1017796319161e-42
1.2075948844928e-42
1.2985078955145e-42
1.3700543640174e-42
1.4186379936306e-42
1.441831109578e-42
1.4385748275843e-42
1.4092559324364e-42
1.3556536673574e-42
1.2807639869581e-42
1.1885272404767e-42
1.0834906993606e-42
9.7044692989216e-43
8.5408630718732e-43
7.3869693448236e-43
6.2793548149477e-43
5.2468164353156e-43
4.3097831821013e-43
3.4804760456647e-43
2.7636886684521e-43
8.2287740305621e-43
0
0
0
0
0
0
0
-5.2968238675891e-70
-5.3535185799336e-68
-2.6933530465172e-66
-8.9925820030816e-65
-2.2414552973742e-63
-4.4485673730391e-62
-7.3221797134168e-61
-1.0279627308056e-59
-1.2564140349879e-58
-1.3579590696965e-57
-1.3139161236737e-56
-1.1493856115752e-55
-9.1643309594351e-55
-6.7050699544286e-54
-4.527321888214e-53
-2.8347221717801e-52
-1.6527197453895e-51
-9.0040217490218e-51
-4.5975453021768e-50
-2.2058142426589e-49
-9.9650132478949e-49
-4.2460085684267e-48
-1.7084990874065e-47
-6.496879668392e-47
-2.3352015137614e-46
-7.9290696132095e-46
-2.5391881972879e-45
-7.6445803720798e-45
-2.1511723033808e-44
-5.5982219997692e-44
-1.3196992258145e-43
-2.6892425512875e-43
-4.1053256620095e-43
-1.1884301712722e-43
2.4585023918728e-42
1.3689108172853e-41
5.3008980527278e-41
1.7495809490654e-40
5.2271647868855e-40
1.4515118420678e-39
3.7996343725497e-39
9.4570856030852e-39
2.250787615477e-38
5.143001943328e-38
1.1316174441756e-37
2.4031809081292e-37
4.9349175643445e-37
9.8138671162389e-37
1.8924434176018e-36
3.5424587970287e-36
6.4432005249124e-36
1.1396752628412e-35
1.961879521881e-35
3.2890683205004e-35
5.3734640138294e-35
8.559854190826e-35
1.3302709443676e-34
2.0178589994135e-34
2.9889593537357e-34
4.3253095978524e-34
6.1173220630574e-34
8.4590590161173e-34
1.1440910266408e-33
1.5140166894386e-33
1.961007480641e-33
2.4868357002495e-33
3.0886539740948e-33
3.7581624624613e-33
4.4811645832873e-33
5.2376397433284e-33
6.0024110929944e-33
6.7464158554147e-33
7.4385049640987e-33
8.0476203038756e-33
8.545135272052e-33
8.9071092143351e-33
9.1162057345323e-33
9.1630601680875e-33
9.0469475733914e-33
8.7756890014611e-33
8.3648268166482e-33
7.8361850734004e-33
7.2159960407288e-33
6.5328106637579e-33
5.8154160807393e-33
5.0909595855048e-33
4.3834322683961e-33
3.7126062702391e-33
3.0934571648514e-33
2.5360464271834e-33
2.0457948844807e-33
1.6240501154547e-33
4.8751236564247e-33
0
0
0
0
0
0
-2.349713109377e-68
-2.4483233892894e-66
-1.2698649038385e-64
-4.371358976205e-63
-1.1235541542437e-61
-2.2999259512189e-60
-3.9057000199686e-59
-5.6594829197172e-58
-7.1432285668928e-57
-7.9777961137408e-56
-7.9822834507737e-55
-7.2273834355198e-54
-5.9708596408002e-53
-4.5321850607029e-52
-3.1794813673601e-51
-2.0719933017713e-50
-1.2598560860277e-49
-7.1752145445154e-49
-3.8407401416777e-48
-1.9381217987934e-47
-9.2451418222562e-47
-4.1790055715065e-46
-1.7939738739085e-45
-7.328408821802e-45
-2.8539140472727e-44
-1.0612716091645e-43
-3.7741624901296e-43
-1.2853466803002e-42
-4.1973124810966e-42
-1.3157458754773e-41
-3.9634813772345e-41
-1.1484148169522e-40
-3.2034029137457e-40
-8.6089579625563e-40
-2.230557829798e-39
-5.5751904574152e-39
-1.3449591848765e-38
-3.1328481523152e-38
-7.0482572338026e-38
-1.5318456990372e-37
-3.2162969102744e-37
-6.5229938144497e-37
-1.2774232423071e-36
-2.4140336595501e-36
-4.3977260980335e-36
-7.7109393887909e-36
-1.2982133990809e-35
-2.0910228309495e-35
-3.2036092216094e-35
-4.6239517783231e-35
-6.1788965007545e-35
-7.3720795333015e-35
-7.1289621591275e-35
-3.4233712123299e-35
7.2334062089624e-35
3.0444164698894e-34
7.4694427578413e-34
1.5217699734112e-33
2.7956553008182e-33
4.7858314295049e-33
7.7617369077355e-33
1.2040663699726e-32
1.7975415530641e-32
2.5932669437222e-32
3.6261812519325e-32
4.9255508428656e-32
6.5104953202342e-32
8.3854429409019e-32
1.0536102416119e-31
1.2926590940163e-31
1.549831442153e-31
1.8171045529008e-31
2.0846398960545e-31
2.3413592440417e-31
2.5757053755895e-31
2.7765143946784e-31
2.9339066891349e-31
3.0400964510701e-31
3.0900271043417e-31
3.0817609855537e-31
3.0165828416079e-31
2.8988130330723e-31
2.7353619368504e-31
2.535086486667e-31
2.3080290108448e-31
2.0646254667745e-31
1.8149649701239e-31
1.5681672576338e-31
1.3319228394554e-31
1.1122161054941e-31
9.1322837819498e-32
7.3739887804874e-32
5.8560864588696e-32
1.7497325518414e-31
0
0
0
0
0
7.8006222967305e-70
-1.1298510353956e-66
-1.207871244371e-64
-6.2789053742052e-63
-2.1544276182932e-61
-5.5084018330167e-60
-1.1206923308211e-58
-1.8908129658823e-57
-2.7217291788113e-56
-3.4125643768364e-55
-3.7863640152722e-54
-3.7642430462946e-53
-3.3870116655858e-52
-2.7812727233551e-51
-2.098848960073e-50
-1.464201224094e-49
-9.4910787581775e-49
-5.7418292325742e-48
-3.2545680870117e-47
-1.7343535915231e-46
-8.7158921325501e-46
-4.1419585209336e-45
-1.8659085288154e-44
-7.9860919643418e-44
-3.253998576824e-43
-1.2645659321879e-42
-4.6950492708924e-42
-1.6679621449132e-41
-5.6780377368928e-41
-1.8545842262087e-40
-5.8191212886113e-40
-1.7559713216845e-39
-5.1012531213103e-39
-1.4280804069287e-38
-3.855944171867e-38
-1.0050049203431e-37
-2.5304333830482e-37
-6.159067103131e-37
-1.4501316587199e-36
-3.3046641635287e-36
-7.2929894841099e-36
-1.5593695996322e-35
-3.23176610242e-35
-6.494331919488e-35
-1.2657892275628e-34
-2.3934202477518e-34
-4.3910794771634e-34
-7.8170519595236e-34
-1.3502421429684e-33
-2.2625458833437e-33
-3.6766133738563e-33
-5.7905156245705e-33
-8.8314778557238e-33
-1.3027177720237e-32
-1.8551162370894e-32
-2.5434374609304e-32
-3.3436884914536e-32
-4.1878748384311e-32
-4.9436794338638e-32
-5.3924823595474e-32
-5.2086966540038e-32
-3.9445707981768e-32
-1.0254367833043e-32
4.2394651731429e-32
1.2626268278955e-31
2.4943492608346e-31
4.1957437712972e-31
6.4300392917437e-31
9.2370096905271e-31
1.26232322128e-30
1.6554055588519e-30
2.0948682904377e-30
2.567954405519e-30
3.0576671076028e-30
3.5437151605684e-30
4.0039017107222e-30
4.4158243808032e-30
4.7587027122195e-30
5.0151231845445e-30
5.1724972863652e-30
5.2240640196136e-30
5.1693287841368e-30
5.0139054859445e-30
4.7688054293524e-30
4.4492828813718e-30
4.07339351136e-30
3.6604427585995e-30
3.2294959026057e-30
2.7980939416044e-30
2.3812762586174e-30
1.990960949127e-30
1.6356849093343e-30
1.3206650740725e-30
1.0481138317721e-30
3.106601278339e-30
0
0
0
0
0
4.0711635761337e-68
-2.6868884663046e-65
-2.9724484565397e-63
-1.5555477228732e-61
-5.339576454578e-60
-1.3625081997268e-58
-2.7634233488937e-57
-4.6451097475932e-56
-6.6593467991052e-55
-8.3142504194291e-54
-9.1849016706519e-53
-9.0911468782961e-52
-8.1440853486883e-51
-6.658272322031e-50
-5.0027440040739e-49
-3.4750481094285e-48
-2.2430464118809e-47
-1.3513574582823e-46
-7.6286863695246e-46
-4.0492425070878e-45
-2.0270995923987e-44
-9.5972642753745e-44
-4.3079039130392e-43
-1.8373998537996e-42
-7.4618195072916e-42
-2.8906534612147e-41
-1.0700308619286e-40
-3.7907409074204e-40
-1.2870766555539e-39
-4.1938639480592e-39
-1.3130701440786e-38
-3.9547618811901e-38
-1.1470211216012e-37
-3.2067769563147e-37
-8.6498857833301e-37
-2.2530300831211e-36
-5.671317856947e-36
-1.3806483516776e-35
-3.2528475126299e-35
-7.4217136872042e-35
-1.6408265832403e-34
-3.5170438253871e-34
-7.3125529801979e-34
-1.4754927432172e-33
-2.8904378067592e-33
-5.4993455688243e-33
-1.0165328832945e-32
-1.8260630740302e-32
-3.1885397468326e-32
-5.412798508385e-32
-8.9340659685369e-32
-1.4337830356807e-31
-2.2371468425731e-31
-3.3931526396693e-31
-5.0011546701835e-31
-7.1594051962437e-31
-9.9472152984625e-31
-1.3399259572658e-30
-1.7472377544819e-30
-2.2006920727574e-30
-2.6686759832723e-30
-3.1004181303988e-30
-3.4237598615647e-30
-3.5450735335347e-30
-3.3521194066452e-30
-2.7203779584908e-30
-1.5229588417519e-30
3.5638822949746e-31
3.0082688014646e-30
6.4823293650019e-30
1.0773709812763e-29
1.5813437141931e-29
2.1464672341748e-29
2.7526098363923e-29
3.3742824487043e-29
3.9824119784579e-29
4.5466255473295e-29
5.0377917871529e-29
5.4305202598924e-29
5.7053202909898e-29
5.8501662976261e-29
5.8612998682664e-29
5.7432046200053e-29
5.5077999878615e-29
5.1729966150918e-29
4.7608246308359e-29
4.2953786075459e-29
3.8008181738326e-29
3.2996263371562e-29
2.8112684245299e-29
2.3513252830448e-29
1.9311068302555e-29
1.5576957376541e-29
1.2343319558068e-29
3.6205230447222e-29
0
0
0
0
7.6128710449245e-80
1.0594540359376e-66
-4.2063882872343e-64
-4.8502007180115e-62
-2.5604498937125e-60
-8.8036801538173e-59
-2.2442457448929e-57
-4.5415373543023e-56
-7.6115945660239e-55
-1.0875723753542e-53
-1.3529653697894e-52
-1.4890377061271e-51
-1.468161336649e-50
-1.3100714248145e-49
-1.0668356610957e-48
-7.9840302389986e-48
-5.5240031429103e-47
-3.551542667383e-46
-2.131303817208e-45
-1.1984926177186e-44
-6.3370480521546e-44
-3.1603537026735e-43
-1.4906568066291e-42
-6.6663844346784e-42
-2.8330153761964e-41
-1.1464098933889e-40
-4.4256031999322e-40
-1.6326298154543e-39
-5.7645678235184e-39
-1.9509101139944e-38
-6.3369352640875e-38
-1.9780170116988e-37
-5.940023523853e-37
-1.7179771468952e-36
-4.7901546084986e-36
-1.2888054357186e-35
-3.3489361546142e-35
-8.4112271425431e-35
-2.0434932908877e-34
-4.805686246811e-34
-1.0946942550465e-33
-2.4168705309105e-33
-5.1747200695201e-33
-1.0750426687368e-32
-2.1681309725702e-32
-4.2468352581344e-32
-8.0825459047194e-32
-1.4952030350548e-31
-2.6894966476505e-31
-4.7053612172981e-31
-8.0090320089136e-31
-1.3265587310305e-30
-2.1384791350411e-30
-3.355553004795e-30
-5.1253609062984e-30
-7.6203380037911e-30
-1.1027132418703e-29
-1.5527112603326e-29
-2.1266665274118e-29
-2.8317279059352e-29
-3.6627427017702e-29
-4.5970769253956e-29
-5.5897820143686e-29
-6.5700408572356e-29
-7.4399350425261e-29
-8.0765134953421e-29
-8.3378694950082e-29
-8.0734454265078e-29
-7.1381278730827e-29
-5.4089643941917e-29
-2.8026594469619e-29
7.0846434143912e-30
5.0844950093049e-29
1.021214125686e-28
1.5906642345317e-28
2.1921898196039e-28
2.7968170652767e-28
3.3735567120245e-28
3.8920612904107e-28
4.3252715406957e-28
4.6517314743527e-28
4.8573000858864e-28
4.9360764470547e-28
4.8904675086482e-28
4.7304445851009e-28
4.472135969181e-28
4.1359744243264e-28
3.7446511425294e-28
3.321121394182e-28
2.8868675589732e-28
2.4605632836164e-28
2.0572110129203e-28
1.6877563701825e-28
1.3591264587172e-28
1.0746009160809e-28
3.1138313222941e-28
0
0
0
0
4.0721550916347e-78
1.8329217217956e-65
-4.8660509527747e-63
-5.8977981207244e-61
-3.1461589938434e-59
-1.0844631841755e-57
-2.7633645608023e-56
-5.5819385312862e-55
-9.3312936077533e-54
-1.3292619062434e-52
-1.6481613180306e-51
-1.8075769044341e-50
-1.7757732441533e-49
-1.5786796327445e-48
-1.2807284767062e-47
-9.548307787068e-47
-6.581026821069e-46
-4.2149081337891e-45
-2.5196921507226e-44
-1.4114689075068e-43
-7.4346763950524e-43
-3.6936627311282e-42
-1.7356206945406e-41
-7.7327468957377e-41
-3.2739402416387e-40
-1.3199379539873e-39
-5.0768285967134e-39
-1.8660793292575e-38
-6.5652106944326e-38
-2.2139979888612e-37
-7.1663364520815e-37
-2.2291912697822e-36
-6.6715682947127e-36
-1.9231116375068e-35
-5.3445466727153e-35
-1.433349344583e-34
-3.7128425503475e-34
-9.2966917095407e-34
-2.2519009898982e-33
-5.2805564464609e-33
-1.1995285392566e-32
-2.6412804481092e-32
-5.6408765837551e-32
-1.1690830325571e-31
-2.3525204789056e-31
-4.5985190384778e-31
-8.7355705672666e-31
-1.6133575320212e-30
-2.8980010138547e-30
-5.0645690448101e-30
-8.6137952487069e-30
-1.4261676040913e-29
-2.2991604776381e-29
-3.6096975696788e-29
-5.519944648466e-29
-8.222376856324e-29
-1.1930769379693e-28
-1.6862663631528e-28
-2.321191478799e-28
-3.1111193710387e-28
-4.0586207452924e-28
-5.1505749148904e-28
-6.3534135823073e-28
-7.6094624762246e-28
-8.8353414531845e-28
-9.9233279471655e-28
-1.0746340238376e-27
-1.1166755395758e-27
-1.1048685481072e-27
-1.0272681995311e-27
-8.7512418500988e-28
-6.443077238186e-28
-3.3639966034658e-28
4.0751263221306e-29
4.7313111589808e-28
9.4136817693575e-28
1.4221876070986e-27
1.8903587638635e-27
2.3209048192012e-27
2.6913039676662e-27
2.98341365392e-27
3.1848929573599e-27
3.289974862349e-27
3.2995352390235e-27
3.2205020610992e-27
3.0647307618151e-27
2.8475277185025e-27
2.5860275644644e-27
2.2976215990309e-27
1.9985997224734e-27
1.7031164140696e-27
1.4225330042649e-27
1.1651337586989e-27
9.3616955458508e-28
7.3815437667456e-28
2.1102798152453e-27
0
0
0
0
1.080671106473e-76
2.3715952712315e-64
-4.4231240439798e-62
-5.6968858529661e-60
-3.0764318787649e-58
-1.0638770116048e-56
-2.7109528470513e-55
-5.4678494243877e-54
-9.1192835458149e-53
-1.2953892089925e-51
-1.6011117704367e-50
-1.7500812928154e-49
-1.7132652659197e-48
-1.5176163672225e-47
-1.2266602495078e-46
-9.1110933880119e-46
-6.2560326644605e-45
-3.9915736100511e-44
-2.3770998371656e-43
-1.3265124031728e-42
-6.9605019201336e-42
-3.4448827303962e-41
-1.6125471309238e-40
-7.1570597260551e-40
-3.018691196022e-39
-1.2124204271169e-38
-4.6456818539167e-38
-1.7011806983923e-37
-5.9626484721954e-37
-2.0032974408214e-36
-6.4602788047594e-36
-2.0021479777261e-35
-5.9700955118393e-35
-1.7146401129301e-34
-4.747950196321e-34
-1.2687818144914e-33
-3.2748783761293e-33
-8.1712119193666e-33
-1.9723960581052e-32
-4.6092545594046e-32
-1.0434927370319e-31
-2.2900528449791e-31
-4.8748028334351e-31
-1.0070849215989e-30
-2.0202227249134e-30
-3.9370269671862e-30
-7.4571187396189e-30
-1.373380337118e-29
-2.4603531133107e-29
-4.288909237614e-29
-7.2774802753443e-29
-1.2023408577851e-28
-1.9346357691412e-28
-3.0324429414558e-28
-4.6311358478976e-28
-6.8919901898871e-28
-9.9954804250803e-28
-1.4127978822395e-27
-1.9460810180389e-27
-2.6121599612979e-27
-3.4159296478018e-27
-4.3506025445352e-27
-5.3940729396809e-27
-6.5061036771923e-27
-7.6270464659035e-27
-8.6787561642242e-27
-9.5681666755564e-27
-1.0193664429784e-26
-1.0453960428793e-26
-1.025869006486e-26
-9.5395491858917e-27
-8.2604972125104e-27
-6.4254989296644e-27
-4.0824750611991e-27
-1.3225777506993e-27
1.7254612862403e-27
4.9054488414552e-27
8.0471841458567e-27
1.0981614406869e-26
1.3555810422692e-26
1.5645931839374e-26
1.7166685558511e-26
1.8076329661509e-26
1.8376934807179e-26
1.8110267963942e-26
1.7350203034026e-26
1.6192913477331e-26
1.4746229371134e-26
1.3119454566246e-26
1.1414683404756e-26
9.7202974401094e-27
8.106933417647e-27
6.625858907196e-27
5.3094176893479e-27
4.173036816642e-27
1.1758039164819e-26
0
0
0
0
1.90380275585e-75
2.4478443828165e-63
-3.2760090687677e-61
-4.5502711635809e-59
-2.4926509269844e-57
-8.6546545376831e-56
-2.2063072162669e-54
-4.4445043230862e-53
-7.3966930400834e-52
-1.0478800334687e-50
-1.2912667728181e-49
-1.406803920632e-48
-1.372491963712e-47
-1.2114518030825e-46
-9.7564154864158e-46
-7.2198970152724e-45
-4.9389394044899e-44
-3.1393363877943e-43
-1.8624680713614e-42
-1.0353614997297e-41
-5.4119567504672e-41
-2.6681898471793e-40
-1.2441707284031e-39
-5.5007920779113e-39
-2.3111643135721e-38
-9.2466848532505e-38
-3.5294137392378e-37
-1.2874307427211e-36
-4.4950377239287e-36
-1.5043919256329e-35
-4.8326939628278e-35
-1.4919631247111e-34
-4.4316850485687e-34
-1.2679103653185e-33
-3.4974579797031e-33
-9.3103826791307e-33
-2.3939452864853e-32
-5.9504403158915e-32
-1.4308909382665e-31
-3.3311970655896e-31
-7.5132042644646e-31
-1.642699104434e-30
-3.4838457420335e-30
-7.1708755995253e-30
-1.4332670383787e-29
-2.7831627680919e-29
-5.253004148623e-29
-9.6410017830851e-29
-1.7212990225893e-28
-2.9906915364445e-28
-5.0584373425581e-28
-8.3315461891769e-28
-1.3366590937179e-27
-2.0893373258072e-27
-3.1825933708467e-27
-4.7251306349617e-27
-6.838547176029e-27
-9.6486867720127e-27
-1.3272130174802e-26
-1.7797857523242e-26
-2.3265038662309e-26
-2.9639015278466e-26
-3.6788645702025e-26
-4.4469042248466e-26
-5.2314070981522e-26
-5.9842573217412e-26
-6.6480985412931e-26
-7.160292730404e-26
-7.4583643533737e-26
-7.4864348752619e-26
-7.2019080827069e-26
-6.5815156673114e-26
-5.6258174075521e-26
-4.3613899890924e-26
-2.8402216994467e-26
-1.1362152308144e-26
6.6087730078273e-27
2.4533794363495e-26
4.1444921884306e-26
5.6468706158659e-26
6.8899302156565e-26
7.8250556137649e-26
8.4282172064258e-26
8.6998868657593e-26
8.6625132944681e-26
8.3561118514977e-26
7.8327031056468e-26
7.1503844654523e-26
6.3677499859321e-26
5.5392139977062e-26
4.7115843539469e-26
3.9220121709484e-26
3.1972519741892e-26
2.5540228072276e-26
2.0001775697849e-26
5.5492686227734e-26
0
0
0
0
2.5057836655801e-74
2.0993471037226e-62
-2.0196992664207e-60
-3.0888067211784e-58
-1.7206409280988e-56
-6.0033170078341e-55
-1.5317164684526e-53
-3.0825554591424e-52
-5.1200191364077e-51
-7.2349500642951e-50
-8.8892517042065e-49
-9.6537635996805e-48
-9.386604058409e-47
-8.2562685008677e-46
-6.6252918319378e-45
-4.8848491903811e-44
-3.3291628343753e-43
-2.1081500030715e-42
-1.2459480002289e-41
-6.8998331796875e-41
-3.5927473964649e-40
-1.764439729708e-39
-8.1956046829037e-39
-3.6093689671486e-38
-1.5105554973942e-37
-6.0198685954816e-37
-2.2887284132808e-36
-8.3157649702831e-36
-2.8919742628114e-35
-9.6405343412453e-35
-3.0846427131396e-34
-9.4851831940677e-34
-2.8062436329169e-33
-7.9967021325737e-33
-2.197040642982e-32
-5.8252431349333e-32
-1.4918318882189e-31
-3.6932840037914e-31
-8.8456059408502e-31
-2.0510640357078e-30
-4.6074788325835e-30
-1.0033629630343e-29
-2.1194584788378e-29
-4.3452007260382e-29
-8.6505564649248e-29
-1.6731875783296e-28
-3.1456848240997e-28
-5.7510389489177e-28
-1.0228588925921e-27
-1.7704704607583e-27
-2.983444148917e-27
-4.8960238918613e-27
-7.8269542314236e-27
-1.2192131932954e-26
-1.850989919413e-26
-2.7393718535433e-26
-3.9526577170168e-26
-5.5612124432149e-26
-7.6299615597908e-26
-1.0208338825301e-25
-1.3318266972569e-25
-1.6941341612135e-25
-2.1006959320065e-25
-2.5383548997023e-25
-2.9875190195703e-25
-3.4225620053022e-25
-3.8130892255512e-25
-4.1260799989756e-25
-4.3287756032743e-25
-4.3920371933688e-25
-4.2937778691827e-25
-4.0220057632244e-25
-3.5770201495094e-25
-2.9723871578376e-25
-2.2344768302049e-25
-1.4005449862205e-25
-5.1555693504208e-26
3.7186289603437e-26
1.2138447195202e-25
1.9674957649769e-25
2.5984209216218e-25
3.0831531266594e-25
3.4102792048465e-25
3.5802403915315e-25
3.6039656778114e-25
3.5006324219902e-25
3.2949251620707e-25
3.0141758012768e-25
2.6857237638734e-25
2.3347494576912e-25
1.9827288014294e-25
1.6465507692558e-25
1.3382500622681e-25
1.0652432916965e-25
8.3092306453564e-26
2.2679066548851e-25
0
0
0
0
2.6281135600233e-73
1.5387113009993e-61
-1.0462555530688e-59
-1.8174121903025e-57
-1.032558972783e-55
-3.6236756121312e-54
-9.2578363854521e-53
-1.8618088008096e-51
-3.0868755667796e-50
-4.351379009375e-49
-5.3311533855599e-48
-5.7715958646765e-47
-5.5932660974999e-46
-4.9027101489061e-45
-3.9201823971878e-44
-2.8798221005543e-43
-1.9553972093175e-42
-1.2335728934939e-41
-7.262876591268e-41
-4.0066182220966e-40
-2.0781848185483e-39
-1.0166503823037e-38
-4.7037429979986e-38
-2.0633981579883e-37
-8.6014106045066e-37
-3.4142378587284e-36
-1.2929080825093e-35
-4.678808846964e-35
-1.620617242162e-34
-5.3806334260837e-34
-1.7146553935626e-33
-5.2511072045489e-33
-1.5472386700334e-32
-4.3909992719492e-32
-1.2014479441539e-31
-3.1724114407017e-31
-8.0909292656397e-31
-1.9947532831735e-30
-4.7577043322193e-30
-1.0985972301921e-29
-2.4575866894877e-29
-5.3295123897279e-29
-1.121080977611e-28
-2.2887826114066e-28
-4.537563979259e-28
-8.7399785687638e-28
-1.6363372782534e-27
-2.9792214722556e-27
-5.276919529534e-27
-9.0964903656512e-27
-1.5266477898103e-26
-2.4952794684574e-26
-3.9732539934328e-26
-6.1650847654906e-26
-9.3240150073795e-26
-1.3747688882228e-25
-1.9764955866163e-25
-2.7711598656287e-25
-3.7893849664137e-25
-5.0540362424512e-25
-6.5745722647253e-25
-8.3411310358753e-25
-1.0319185929692e-24
-1.2445777640798e-24
-1.4628355427021e-24
-1.6747096220419e-24
-1.8661198777595e-24
-2.0219100607547e-24
-2.1271912945738e-24
-2.1688725896803e-24
-2.1371931547403e-24
-2.0270466177741e-24
-1.8388962832892e-24
-1.5791249380143e-24
-1.2597369918301e-24
-8.9742293927247e-25
-5.1209009586824e-25
-1.2504231774057e-25
2.429592336919e-25
5.7351065187713e-25
8.5203868967092e-25
1.0687759433055e-24
1.2191602944096e-24
1.3036657729897e-24
1.3271472245304e-24
1.2978355469699e-24
1.2261475218729e-24
1.1234737621538e-24
1.0010843648105e-24
8.6925218669092e-25
7.3664730036561e-25
6.1001160657776e-25
4.940862347822e-25
3.9173994592239e-25
3.0423514420985e-25
8.1621113909306e-25
0
0
0
0
2.2875613742209e-72
9.838683908322e-61
-4.5330057228134e-59
-9.4052244378526e-57
-5.4699360292148e-55
-1.933036457812e-53
-4.9476696097378e-52
-9.945991262271e-51
-1.6464071134844e-49
-2.3154988805265e-48
-2.8290660065011e-47
-3.0534439042434e-46
-2.9494317069769e-45
-2.5764381673572e-44
-2.0528118645929e-43
-1.5025481176914e-42
-1.0164509614956e-41
-6.3882205225772e-41
-3.7468540957375e-40
-2.0590259215013e-39
-1.0638463741849e-38
-5.1839913924241e-38
-2.3890348138239e-37
-1.0438486665662e-36
-4.3340096923657e-36
-1.7134454268654e-35
-6.4623642426455e-35
-2.3291507003169e-34
-8.0347550117711e-34
-2.6567273875805e-33
-8.4314724979061e-33
-2.5714738196359e-32
-7.5454457852369e-32
-2.1324513905031e-31
-5.8103306829017e-31
-1.5277687069451e-30
-3.8799937692037e-30
-9.5253056527588e-30
-2.2622324410497e-29
-5.2014171927548e-29
-1.1585888281527e-28
-2.5017262018836e-28
-5.2398196050959e-28
-1.065140846711e-27
-2.1025458450218e-27
-4.0322876602973e-27
-7.5167809710347e-27
-1.3626388982897e-26
-2.4031455256778e-26
-4.1247695940533e-26
-6.8928330814721e-26
-1.1218132923001e-25
-1.7786993603471e-25
-2.7483110111725e-25
-4.139235736239e-25
-6.0780143129837e-25
-8.7030744626986e-25
-1.2154017888806e-24
-1.6555908693654e-24
-2.1998996209462e-24
-2.8515322155842e-24
-3.605476869012e-24
-4.4464084443966e-24
-5.3473022290813e-24
-6.2691689825312e-24
-7.1622384564124e-24
-7.9687535448798e-24
-8.6273056565451e-24
-9.0783776271119e-24
-9.2705108260666e-24
-9.1663298647705e-24
-8.7475862971602e-24
-8.0184484792408e-24
-7.0064686608066e-24
-5.7609722513202e-24
-4.3489857573516e-24
-2.8491831163777e-24
-1.344619223576e-24
8.4817180410503e-26
1.3692878926426e-24
2.4544209919326e-24
3.3047066244287e-24
3.9046417563538e-24
4.2577191563176e-24
4.3836332714553e-24
4.3142640343312e-24
4.0890798701181e-24
3.7505760163495e-24
3.3402545554603e-24
2.8954903220053e-24
2.4474473210166e-24
2.0200447781092e-24
1.6298428388843e-24
1.2866366020551e-24
9.94514403961e-25
2.6206833278275e-24
0
0
0
0
1.7000353561296e-71
5.5749613954363e-60
-1.5923465130961e-58
-4.3281291733817e-56
-2.5886054738924e-54
-9.2241424167942e-53
-2.3667226658319e-51
-4.7573003367654e-50
-7.8640184747335e-49
-1.1035993777103e-47
-1.3447952963252e-46
-1.447122352791e-45
-1.3933305228286e-44
-1.2130021803906e-43
-9.6307676377454e-43
-7.0237100902404e-42
-4.7338730943953e-41
-2.9639725360178e-40
-1.7318173049729e-39
-9.4802247398609e-39
-4.8791082989679e-38
-2.3681856869742e-37
-1.0870528053766e-36
-4.7307530154447e-36
-1.9563021461075e-35
-7.7029847047802e-35
-2.8934285015651e-34
-1.0385841179293e-33
-3.5680418848195e-33
-1.1749195885094e-32
-3.7132927270169e-32
-1.1277772569679e-31
-3.2953574692977e-31
-9.2739379371775e-31
-2.5161956072038e-30
-6.5879583351288e-30
-1.6659625562267e-29
-4.0723540877879e-29
-9.6300345942206e-29
-2.2045915671059e-28
-4.8892665091948e-28
-1.0511252942878e-27
-2.1919174014665e-27
-4.4360996738121e-27
-8.7180620321958e-27
-1.6645646891328e-26
-3.0892352615679e-26
-5.5752700347359e-26
-9.7887762312247e-26
-1.6726675352065e-25
-2.7827176579096e-25
-4.5087376139518e-25
-7.1171069371743e-25
-1.0948114515574e-24
-1.6416286052395e-24
-2.3999927749378e-24
-3.4216107570289e-24
-4.7578260503551e-24
-6.4535620749439e-24
-8.539673867315e-24
-1.1024315077506e-23
-1.3884325618468e-23
-1.705797836788e-23
-2.0440596709034e-23
-2.3884484097694e-23
-2.7204242145308e-23
-3.018790032202e-23
-3.2613410581113e-23
-3.4269109152518e-23
-3.497589235506e-23
-3.4608276831898e-23
-3.311136478459e-23
-3.0511085370365e-23
-2.6915910482592e-23
-2.2509422879001e-23
-1.7534445199399e-23
-1.2270681063753e-23
-7.0087493365114e-24
-2.0239468954445e-24
2.4470136882501e-24
6.2236384268588e-24
9.1919705528397e-24
1.1307051285484e-23
1.258809651999e-23
1.310786725668e-23
1.2978280567212e-23
1.233449491665e-23
1.1319536361007e-23
1.0071095927199e-23
8.7115406523635e-24
7.3415627040194e-24
6.0373448657461e-24
4.8507145773945e-24
3.811521891753e-24
2.9314033253077e-24
7.5834806808518e-24
0
0
0
0
1.1009767392583e-70
2.8342898671477e-59
-4.0441163341114e-58
-1.7855852951305e-55
-1.1047626152743e-53
-3.9757980021969e-52
-1.0233121360361e-50
-2.0575516484114e-49
-3.3972681059648e-48
-4.7579802917538e-47
-5.7830840439627e-46
-6.2050227547069e-45
-5.9554712523415e-44
-5.1673300306868e-43
-4.0883384094904e-42
-2.970887928535e-41
-1.9949513007916e-40
-1.2443862590235e-39
-7.2430762485131e-39
-3.9496454509209e-38
-2.0247899030524e-37
-9.78901751747e-37
-4.4755190913944e-36
-1.9399002627295e-35
-7.9896803603513e-35
-3.1331823550006e-34
-1.1720928380912e-33
-4.1898985803314e-33
-1.4334900887778e-32
-4.7007423336327e-32
-1.4794554566404e-31
-4.4744685265457e-31
-1.3019286942114e-30
-3.6484347580192e-30
-9.8567957760572e-30
-2.5696998326775e-29
-6.4703564069715e-29
-1.5748206778015e-28
-3.7078929619718e-28
-8.4514721895551e-28
-1.86613863552e-27
-3.9943095152315e-27
-8.2925770676635e-27
-1.6708437542375e-26
-3.2689998790714e-26
-6.2136584144968e-26
-1.147997651048e-25
-2.0624866396018e-25
-3.6048003764871e-25
-6.1317297701311e-25
-1.0154460915177e-24
-1.6377660965361e-24
-2.5733909067866e-24
-3.940440822895e-24
-5.881438304333e-24
-8.5590245809892e-24
-1.2146646682947e-23
-1.6813398236961e-23
-2.2702938913929e-23
-2.9907487604096e-23
-3.8439167189808e-23
-4.820226153854e-23
-5.8970942057936e-23
-7.0377424395819e-23
-8.1915070324225e-23
-9.2959531670751e-23
-1.028087131455e-22
-1.1073939952572e-22
-1.1607533199624e-22
-1.182589193145e-22
-1.1691720783713e-22
-1.1191263522066e-22
-1.0337061585792e-22
-9.1678987846691e-23
-7.7458318406488e-23
-6.1506324415232e-23
-4.472344896306e-23
-2.8029264051842e-23
-1.2280396667811e-23
1.8000259399915e-24
1.3673637788318e-23
2.3014289409607e-23
2.9710845809548e-23
3.3847886276279e-23
3.566948615946e-23
3.55327630674e-23
3.3858168839597e-23
3.108274491218e-23
2.7621035943151e-23
2.3836455823182e-23
2.0023994134284e-23
1.6403536592628e-23
1.312193264342e-23
1.0261338081749e-23
7.8512476239968e-24
1.9936186543262e-23
0
0
0
0
6.3125896125909e-70
1.305826460361e-58
-3.1272199236265e-58
-6.6418416529525e-55
-4.2843066477195e-53
-1.5601650254148e-51
-4.0315331067228e-50
-8.1120423557477e-49
-1.3381910883167e-47
-1.8707307904317e-46
-2.2682528779733e-45
-2.4268691261041e-44
-2.3220357611757e-43
-2.0080759739122e-42
-1.5832702874001e-41
-1.146401960453e-40
-7.6698029173127e-40
-4.7662298458629e-39
-2.7636503875715e-38
-1.5011884211169e-37
-7.6657429330898e-37
-3.6914190001489e-36
-1.6809795628982e-35
-7.2568756467128e-35
-2.9767252435743e-34
-1.1625803188978e-33
-4.3312875237848e-33
-1.5419372122632e-32
-5.2536010517839e-32
-1.7156138689527e-31
-5.3769689998714e-31
-1.6193909371663e-30
-4.6920677411417e-30
-1.3093108511844e-29
-3.5222753770731e-29
-9.1435210183941e-29
-2.2924231333765e-28
-5.5555228793767e-28
-1.3023860094743e-27
-2.9556615670755e-27
-6.4978063440627e-27
-1.384699079131e-26
-2.8620941752111e-26
-5.7411702870689e-26
-1.1182496210761e-25
-2.116017403904e-25