/*--------------------------------*- C++ -*----------------------------------*\
  =========                 |
  \\      /  F ield         | OpenFOAM: The Open Source CFD Toolbox
   \\    /   O peration     | Website:  https://openfoam.org
    \\  /    A nd           | Version:  7
     \\/     M anipulation  |
\*---------------------------------------------------------------------------*/
FoamFile
{
    version     2.0;
    format      ascii;
    class       volScalarField;
    location    "3.1";
    object      alpha.water;
}
// * * * * * * * * * * * * * * * * * * * * * * * * * * * * * * * * * * * * * //

dimensions      [0 0 0 0 0 0 0];

internalField   nonuniform List<scalar> 
6000
(
0
0
0
0
0
0
0
0
0
0
0
0
0
0
0
0
0
0
0
0
0
0
0
0
0
0
0
0
0
0
0
0
0
0
0
0
0
0
0
0
0
0
0
0
0
0
0
0
0
0
0
0
0
0
0
0
0
0
0
0
0
0
0
0
0
0
0
0
0
0
0
0
0
0
0
0
0
0
0
0
0
0
0
0
0
0
0
0
0
0
0
0
0
0
0
0
0
0
0
0
0
0
0
0
0
0
0
0
0
0
0
0
0
0
0
0
0
0
0
0
0
0
0
0
0
0
0
0
0
0
0
0
0
0
0
0
0
0
0
0
0
0
0
0
0
0
0
0
0
0
0
0
0
0
0
0
0
0
0
0
0
0
0
0
0
0
0
0
0
0
0
0
0
0
0
0
0
0
0
0
0
0
0
0
0
0
0
0
0
0
0
0
0
0
0
0
0
0
0
0
0
0
0
0
0
0
0
0
0
0
0
0
0
0
0
0
0
0
0
0
0
0
0
0
0
0
0
0
0
0
0
0
0
0
0
0
0
0
0
0
0
0
0
0
0
0
0
0
0
0
0
0
0
0
0
0
0
0
0
0
0
0
0
0
0
0
0
0
0
0
0
0
0
0
0
0
0
0
0
0
0
0
0
0
0
0
0
0
0
0
0
0
0
0
0
0
0
0
0
0
0
0
0
0
0
0
0
0
0
0
0
0
0
0
0
0
0
0
0
0
0
0
0
0
0
0
0
0
0
0
0
0
0
0
0
0
0
0
0
0
0
0
0
0
0
0
0
0
0
0
0
0
0
0
0
0
0
0
0
0
0
0
0
0
0
0
0
0
0
0
0
0
0
0
0
0
0
0
0
0
0
0
0
0
0
0
0
0
0
0
0
0
0
0
0
0
0
0
0
0
0
0
0
0
0
0
0
0
0
1.0553271218905e-76
1.0538854612958e-74
5.2158216577679e-73
1.7157313213228e-71
4.2156151299809e-70
8.2530486851446e-69
1.3410963431442e-67
1.8603163214496e-66
2.2486071971124e-65
2.4060035759301e-64
2.3072939637942e-63
2.0030809646404e-62
1.5873232945031e-61
1.1562022475101e-60
7.7870071579336e-60
4.8739918635554e-59
2.847790644771e-58
1.5592907305608e-57
8.0286129630708e-57
3.8992700196341e-56
1.7912208744082e-55
7.8022464062226e-55
3.2297630726011e-54
1.2731847246184e-53
4.788461376973e-53
1.7211946586633e-52
5.9221627826789e-52
1.9533554516149e-51
6.1847205463232e-51
1.8820978852991e-50
5.5113187774834e-50
1.5546547451496e-49
4.2288341758146e-49
1.1102758193482e-48
2.8161427816313e-48
6.9065095480892e-48
1.6390356691679e-47
3.7667746311163e-47
8.3890081927004e-47
1.8117683168931e-46
3.7968377561259e-46
7.7255741109659e-46
1.5271358944801e-45
2.9342661808451e-45
5.4830378009972e-45
9.9691327058061e-45
1.7644635391436e-44
3.0414637177949e-44
5.1080328016199e-44
8.3618881680893e-44
1.3347664994675e-43
2.07835626573e-43
3.1579496085749e-43
4.6839363410218e-43
6.7839328591788e-43
9.5974352870778e-43
1.3266754671345e-42
1.7924114731074e-42
2.3675392646546e-42
3.05816710871e-42
3.8640561219008e-42
4.7769767311569e-42
5.7795769184376e-42
6.8450041371105e-42
7.9375026914902e-42
9.0140754925672e-42
1.0027126125974e-41
1.0927923358829e-41
1.1670502671865e-41
1.22155779031e-41
1.2534011949192e-41
1.2609392641256e-41
1.2439414983094e-41
1.2035901480856e-41
1.1423494049281e-41
1.0637205612251e-41
9.7191566924272e-42
8.7149366959547e-42
7.6699839406729e-42
6.6263958534698e-42
5.6204234713851e-42
4.6808389390577e-42
3.8281924635269e-42
3.0748917792842e-42
2.4259447957973e-42
1.8801577428378e-42
1.43158040118e-42
1.0709996582265e-42
7.8733191208502e-43
5.688036351519e-43
1.2462391507056e-42
0
0
0
0
0
0
0
-9.7709154288936e-67
-9.2501601263392e-65
-4.357589029216e-63
-1.3618423928059e-61
-3.176149599539e-60
-5.8958959464858e-59
-9.0729629805205e-58
-1.1903480825461e-56
-1.3589780709955e-55
-1.3712884164457e-54
-1.2380353299451e-53
-1.0099346265971e-52
-7.5041769132127e-52
-5.1128338684478e-51
-3.2121736736049e-50
-1.8696657932208e-49
-1.0122486988467e-48
-5.1147566701791e-48
-2.4187321344086e-47
-1.0728917156832e-46
-4.4717885965637e-46
-1.7533698443809e-45
-6.4708964329661e-45
-2.2471854130597e-44
-7.3334615349018e-44
-2.2422369014351e-43
-6.3871171165243e-43
-1.6772829625035e-42
-3.9769083325289e-42
-8.1197257547133e-42
-1.2329966491967e-41
-3.0785635623928e-42
7.6309002809991e-41
4.1872379523718e-40
1.6061754907861e-39
5.2500864309964e-39
1.5516211919016e-38
4.2561650096572e-38
1.0989576548111e-37
2.6940137027323e-37
6.3059790406e-37
1.4151328039803e-36
3.0538399888117e-36
6.3521405579697e-36
1.2759643751302e-35
2.4790121184297e-35
4.6645774271777e-35
8.510046595945e-35
1.5068444647894e-34
2.5918151489102e-34
4.3339295298247e-34
7.0503878917855e-34
1.1165601041287e-33
1.7224690491786e-33
2.5897887369789e-33
3.7970642931919e-33
5.4314438612558e-33
7.5834545453636e-33
1.033934897478e-32
1.3771264932126e-32
1.7925884332862e-32
2.2812729525025e-32
2.8393603559185e-32
3.4574871166811e-32
4.1204210463247e-32
4.8073103320487e-32
5.4925692387303e-32
6.1473793179541e-32
6.7416940171129e-32
7.2465524272971e-32
7.636449960894e-32
7.8914917017176e-32
7.9990733451563e-32
7.9548927113505e-32
7.763182196263e-32
7.4361544083332e-32
6.9927526494958e-32
6.4568791164858e-32
5.8553251884146e-32
5.215644433377e-32
4.5641910011319e-32
3.9245004534317e-32
3.316127107683e-32
2.7539832850429e-32
2.2481622254636e-32
1.8041760254841e-32
1.4235074110592e-32
1.104360489067e-32
8.4249877999319e-33
6.3207470741924e-33
4.6637826063196e-33
3.384588018215e-33
7.5597686064619e-33
0
0
0
0
0
0
-4.3344556375316e-65
-4.2358276434504e-63
-2.059924512108e-61
-6.6467281373536e-60
-1.600866934378e-58
-3.0698390499333e-57
-4.8821418538915e-56
-6.623165001848e-55
-7.8239556713173e-54
-8.1756339232845e-53
-7.65127330565e-52
-6.4776075373614e-51
-5.0021131029545e-50
-3.547811124555e-49
-2.3248508433194e-48
-1.4146830418628e-47
-8.0290778336191e-47
-4.2666887264147e-46
-2.1301722736865e-45
-1.0021931613129e-44
-4.4552815828197e-44
-1.8760287501993e-43
-7.4988323781011e-43
-2.8509892554007e-42
-1.0328154693176e-41
-3.5709260652062e-41
-1.1800794810308e-40
-3.7324732466248e-40
-1.1312697545348e-39
-3.2892630189583e-39
-9.1838676577708e-39
-2.4645259575401e-38
-6.3615586357749e-38
-1.5805668171096e-37
-3.782091617275e-37
-8.7201251137909e-37
-1.9379057211578e-36
-4.1519139738246e-36
-8.5759856293515e-36
-1.7075182056729e-35
-3.275705872326e-35
-6.050141616592e-35
-1.0744910360493e-34
-1.8313529223745e-34
-2.9865595148588e-34
-4.6382820070918e-34
-6.8075814479628e-34
-9.3162985968077e-34
-1.1580186091077e-33
-1.2288396704419e-33
-8.9447505910695e-34
2.7399771629323e-34
2.958956877921e-33
8.1783761601119e-33
1.7365669711293e-32
3.2431737953284e-32
5.5789292314666e-32
9.0317373671416e-32
1.3924556958497e-31
2.0594392385872e-31
2.9361626392636e-31
4.0491082585549e-31
5.4148049488732e-31
7.0354242068607e-31
8.8949932159267e-31
1.0956887860022e-30
1.3163197878635e-30
1.5436368959112e-30
1.7683241139781e-30
1.9801260858127e-30
2.1686302985107e-30
2.3241261787749e-30
2.4384410061789e-30
2.505651728278e-30
2.5225865915338e-30
2.4890585688356e-30
2.4078089862656e-30
2.2841782373716e-30
2.1255546299956e-30
1.9406770015556e-30
1.738878606982e-30
1.5293582680352e-30
1.320551571655e-30
1.119653481582e-30
9.3231844339021e-31
7.6253926095602e-31
6.1268525715141e-31
4.8366578320702e-31
3.7517785757303e-31
2.8599615199287e-31
2.1426831231217e-31
1.5778681667457e-31
1.1421827693231e-31
2.5216494551889e-31
0
0
0
0
0
1.4389608312346e-66
-1.9547140580546e-63
-1.959388212846e-61
-9.5477444464338e-60
-3.0700435589285e-58
-7.353804156811e-57
-1.4012763630186e-55
-2.2136707357869e-54
-2.9827122985954e-53
-3.4996367940059e-52
-3.632556632882e-51
-3.3774294414633e-50
-2.8412726685685e-49
-2.1806930806412e-48
-1.5376307846955e-47
-1.0019696450442e-46
-6.0647511634086e-46
-3.4249125119664e-45
-1.8115481086251e-44
-9.0054217188299e-44
-4.2202447237423e-43
-1.8695497009386e-42
-7.8481908646933e-42
-3.1289595711647e-41
-1.187144659337e-40
-4.2941569399781e-40
-1.4833755442293e-39
-4.9010643318252e-39
-1.5509872601409e-38
-4.7072561171501e-38
-1.3717906373817e-37
-3.8427859251698e-37
-1.0358179162001e-36
-2.6890899324834e-36
-6.7295376933207e-36
-1.6246719763276e-35
-3.786690451463e-35
-8.5261319625848e-35
-1.8556609859225e-34
-3.9059560210249e-34
-7.9549376012305e-34
-1.568176110988e-33
-2.993204306885e-33
-5.5329861450263e-33
-9.9065170304793e-33
-1.7180195589593e-32
-2.8855539464806e-32
-4.6924389118277e-32
-7.3844052946664e-32
-1.1236529790848e-31
-1.6512999344431e-31
-2.3394986558706e-31
-3.1869211619931e-31
-4.1574021464972e-31
-5.1607433380988e-31
-6.0312428553129e-31
-6.5067716576238e-31
-6.2124972417864e-31
-4.6542944446585e-31
-1.2271160583292e-31
4.7572061560886e-31
1.4020279083673e-30
2.7246310284256e-30
4.4994813859934e-30
6.7605681761497e-30
9.5108870903146e-30
1.2715282461176e-29
1.6296537068579e-29
2.0135791459271e-29
2.4077848205487e-29
2.7941229444534e-29
3.1532123149582e-29
3.4660708757065e-29
3.7157920384536e-29
3.8890573095009e-29
3.9772974692503e-29
3.9773638673893e-29
3.8916413277031e-29
3.7276120918189e-29
3.4969526577536e-29
3.2143006365676e-29
2.8958592306095e-29
2.5580101418724e-29
2.2160842300218e-29
1.8833995997351e-29
1.5706277449946e-29
1.2854989010198e-29
1.0328154042639e-29
8.1471164457547e-30
6.310831661102e-30
4.8010497668882e-30
3.5876749005753e-30
2.6337399292251e-30
1.8996215376212e-30
4.1354466166336e-30
0
0
0
0
0
7.049503791119e-65
-4.3580001326737e-62
-4.5196822600196e-60
-2.2166188325178e-58
-7.128597182545e-57
-1.7037436480799e-55
-3.2356325116037e-54
-5.0913498900041e-53
-6.8308028489794e-52
-7.9789085787707e-51
-8.2442517856067e-50
-7.6300367376443e-49
-6.3893252785915e-48
-4.8814737942848e-47
-3.4264528744508e-46
-2.2228642421655e-45
-1.3395923261878e-44
-7.5327141394009e-44
-3.967712913154e-43
-1.9644164001287e-42
-9.1698386781827e-42
-4.0468380583206e-41
-1.6926542082519e-40
-6.7249472435962e-40
-2.5430728555047e-39
-9.1702547534818e-39
-3.1585788747526e-38
-1.0407928929517e-37
-3.2856388037595e-37
-9.9501720681673e-37
-2.8941797173076e-36
-8.0945735869241e-36
-2.1791621353091e-35
-5.6523983816652e-35
-1.4138839949428e-34
-3.4134571567415e-34
-7.9599468953041e-34
-1.7942016555579e-33
-3.9116873517597e-33
-8.253766517945e-33
-1.6864605645356e-32
-3.3385247618668e-32
-6.4059462022337e-32
-1.1918866324499e-31
-2.1510871416268e-31
-3.7668198157245e-31
-6.4014641471695e-31
-1.055925175858e-30
-1.6906783355875e-30
-2.6275051217603e-30
-3.9628543679022e-30
-5.7984887771511e-30
-8.2269249046415e-30
-1.1309289163345e-29
-1.5045602296581e-29
-1.9339142765778e-29
-2.395860261824e-29
-2.8503914834515e-29
-3.2383409739875e-29
-3.4810767798686e-29
-3.4829531440739e-29
-3.1370373378409e-29
-2.3341902680869e-29
-9.7499869652577e-30
1.0165704712878e-29
3.6794740189623e-29
7.0038769030242e-29
1.0923465737013e-28
1.5313494256471e-28
1.9995566615536e-28
2.4749213169281e-28
2.9329269014746e-28
3.3487120163776e-28
3.6993217818021e-28
3.9658008990948e-28
4.1348642453315e-28
4.1999442098694e-28
4.1615073599255e-28
4.0266389992325e-28
3.8079938741113e-28
3.5222883136016e-28
3.1885526823771e-28
2.8263695639833e-28
2.4542960196884e-28
2.0886165063196e-28
1.74250849767e-28
1.4256377274388e-28
1.1441444076487e-28
9.0094239868394e-29
6.9623270905462e-29
5.2812983485437e-29
3.9331062098522e-29
2.8761548212662e-29
2.0655575665204e-29
4.4284868059595e-29
0
0
0
0
1.4060540129903e-76
1.7218566125732e-63
-6.393209330713e-61
-6.9102949984415e-59
-3.4180353526879e-57
-1.1008074144526e-55
-2.6277193819815e-54
-4.9779549007572e-53
-7.8080452889219e-52
-1.0438131009449e-50
-1.2145855443726e-49
-1.2499776504061e-48
-1.1521334734576e-47
-9.6079917874412e-47
-7.3100213857931e-46
-5.1097552283555e-45
-3.3011123498113e-44
-1.9811700318696e-43
-1.1094719437556e-42
-5.8202069904219e-42
-2.8700260520379e-41
-1.3344172617734e-40
-5.8661025935898e-40
-2.4441884817108e-39
-9.6742927099029e-39
-3.6449106951136e-38
-1.3096154250442e-37
-4.4949803204826e-37
-1.476102576434e-36
-4.6444468022993e-36
-1.402026365623e-35
-4.0655191204393e-35
-1.1337241888265e-34
-3.0436095056483e-34
-7.8738433057323e-34
-1.9647053540772e-33
-4.7324931359673e-33
-1.1013060971926e-32
-2.4778288623064e-32
-5.3935786626872e-32
-1.1365826469282e-31
-2.3200569418884e-31
-4.5899219642647e-31
-8.8051521019991e-31
-1.6386633277452e-30
-2.9596520494539e-30
-5.1897464031137e-30
-8.8377453583577e-30
-1.4619729319837e-29
-2.3497817288533e-29
-3.6700008737189e-29
-5.5703644299657e-29
-8.2161978408746e-29
-1.1775358569752e-28
-1.6393965860676e-28
-2.2162606053887e-28
-2.9074550397601e-28
-3.6979889976909e-28
-4.5542015899383e-28
-5.4205000384472e-28
-6.2181507481522e-28
-6.8470262198918e-28
-7.1909438110919e-28
-7.1267586553633e-28
-6.5367429870618e-28
-5.3230977984903e-28
-3.4228352946398e-28
-8.2088495017228e-29
2.4407711708082e-28
6.2597787344021e-28
1.0477028036738e-27
1.4887335487742e-27
1.9256227456281e-27
2.3340879585477e-27
2.6912575226705e-27
2.9777786274194e-27
3.1795196658284e-27
3.288663602598e-27
3.3040838928675e-27
3.2310011570462e-27
3.0800181289377e-27
2.8657060207579e-27
2.6049570277234e-27
2.315322253148e-27
2.0135259648767e-27
1.7142951835529e-27
1.4295802243205e-27
1.1681789800842e-27
9.3572515570314e-28
7.3496438605779e-28
5.6622422940187e-28
4.27982951655e-28
3.1745391400709e-28
2.3112221283547e-28
1.6519300245203e-28
3.4853826411942e-28
0
0
0
0
7.0614652893247e-75
2.7956674022325e-62
-6.9262961163767e-60
-7.8705118049643e-58
-3.9331967972306e-56
-1.269611993924e-54
-3.0286713702885e-53
-5.7257406034189e-52
-8.9556941734973e-51
-1.1933234118544e-49
-1.3836213838437e-48
-1.4186124246416e-47
-1.3025149684628e-46
-1.0819203544592e-45
-8.1986249291549e-45
-5.7077924975722e-44
-3.6725418148195e-43
-2.1951501325851e-42
-1.2243240325453e-41
-6.3967686288788e-41
-3.1416461787051e-40
-1.4548607009818e-39
-6.3701345492305e-39
-2.6437187238866e-38
-1.0423059441477e-37
-3.9117717732424e-37
-1.4000951341191e-36
-4.7872553021063e-36
-1.5661727617236e-35
-4.9095567512499e-35
-1.4766314961656e-34
-4.2664232673565e-34
-1.1855331707767e-33
-3.1716283089462e-33
-8.1770844380137e-33
-2.0335824235755e-32
-4.882526921507e-32
-1.1326469232121e-31
-2.5405963721735e-31
-5.5140460446292e-31
-1.1587252689692e-30
-2.3590011354182e-30
-4.6553981538838e-30
-8.9102880972781e-30
-1.6547801248488e-29
-2.9832674019613e-29
-5.2229912826553e-29
-8.8833206031356e-29
-1.46823315504e-28
-2.3588103331797e-28
-3.6843614714581e-28
-5.595920584176e-28
-8.2653772212734e-28
-1.1872603342107e-27
-1.6584199164409e-27
-2.2523523154456e-27
-2.9733314087266e-27
-3.8134301214705e-27
-4.7485406332316e-27
-5.7352982164506e-27
-6.7097435290321e-27
-7.5885026395216e-27
-8.2730308563858e-27
-8.6570587301031e-27
-8.6368427125866e-27
-8.1232464347089e-27
-7.0541764385196e-27
-5.4055871898009e-27
-3.1992479038689e-27
-5.0577031954381e-28
2.5579933922642e-27
5.8372535073324e-27
9.1524727911665e-27
1.2315847247606e-26
1.5148950688268e-26
1.749923937338e-26
1.9253319044722e-26
2.0345418201815e-26
2.0760277030698e-26
2.0530502481171e-26
1.9729204550402e-26
1.8459292855536e-26
1.6841102462307e-26
1.5000019394904e-26
1.3055529356505e-26
1.1112696582773e-26
9.2565892368554e-27
7.549694980037e-27
6.0319862563109e-27
4.7230405574634e-27
3.6255066332861e-27
2.729217628949e-27
2.0153540521496e-27
1.4602141500378e-27
1.0383195439466e-27
2.1547352657467e-27
0
0
0
0
1.7606087930019e-73
3.3943583351142e-61
-5.8915461422924e-59
-7.1176897534718e-57
-3.6004562837745e-55
-1.1657567769365e-53
-2.7803366752737e-52
-5.2471059464408e-51
-8.1859171581623e-50
-1.0873982402422e-48
-1.25652558099e-47
-1.2836573735158e-46
-1.1741842550704e-45
-9.7156783195437e-45
-7.3335202961959e-44
-5.0852459227901e-43
-3.258879041121e-42
-1.9400539225243e-41
-1.0776757744923e-40
-5.6077865327566e-40
-2.7430028762874e-39
-1.26511300625e-38
-5.5169305022978e-38
-2.2803856818575e-37
-8.9543993794064e-37
-3.3470927021803e-36
-1.1931917766985e-35
-4.0635341157602e-35
-1.3241232404224e-34
-4.1343757932679e-34
-1.238588337587e-33
-3.5646355253184e-33
-9.8666874453093e-33
-2.6294063691266e-32
-6.753117690976e-32
-1.6730628507381e-31
-4.0018042724007e-31
-9.2487855694291e-31
-2.0669290464041e-30
-4.4697551475261e-30
-9.3593227345596e-30
-1.8987764947493e-29
-3.7343936311831e-29
-7.1238346847759e-29
-1.3187692754117e-28
-2.3701848192076e-28
-4.1374681589259e-28
-7.0176258340914e-28
-1.1569001144731e-27
-1.8543040495744e-27
-2.8903871202933e-27
-4.382393289501e-27
-6.4642015278841e-27
-9.2770387758458e-27
-1.2954138726655e-26
-1.7599161574896e-26
-2.3259376448836e-26
-2.9896087933255e-26
-3.7356319552551e-26
-4.5351002620142e-26
-5.3445464175737e-26
-6.1067515750967e-26
-6.7536724327462e-26
-7.2115557055253e-26
-7.4079387932736e-26
-7.2798464773712e-26
-6.7821650999108e-26
-5.8949867544739e-26
-4.6287254476885e-26
-3.0260370073969e-26
-1.1600005908129e-26
8.7142665755033e-27
2.9540891238717e-26
4.9683554530337e-26
6.8004737391753e-26
8.353066765702e-26
9.5534420567027e-26
1.0358768319801e-25
1.0757677786022e-25
1.0768394116572e-25
1.0433960976668e-25
9.8154818344806e-26
8.9844364992508e-26
8.0151123998876e-26
6.9780102446353e-26
5.9348083159313e-26
4.9351590679482e-26
4.0153023948643e-26
3.1982533852419e-26
2.495180358156e-26
1.907533930393e-26
1.4295069906183e-26
1.0504768218222e-26
7.5717947446632e-27
5.354704679138e-27
1.0924120334449e-26
0
0
0
0
2.9137798488664e-72
3.2871679731458e-60
-4.0789511865761e-58
-5.3200230819329e-56
-2.7298795758615e-54
-8.8729512664375e-53
-2.1166617433664e-51
-3.9887371806999e-50
-6.2079347260339e-49
-8.2223247148709e-48
-9.4700235962142e-47
-9.6405137108276e-46
-8.7859251720201e-45
-7.2422567090345e-44
-5.445353987535e-43
-3.7610704265835e-42
-2.4006766850882e-41
-1.4234108858584e-40
-7.8748901068795e-40
-4.0811200048623e-39
-1.9881050179493e-38
-9.1319330405076e-38
-3.9659528430043e-37
-1.6325710828803e-36
-6.3842775556307e-36
-2.3765817266787e-35
-8.4373011787287e-35
-2.8615700370523e-34
-9.2861397306149e-34
-2.8875037515483e-33
-8.6148000145435e-33
-2.4691027427283e-32
-6.8061565410543e-32
-1.806326046315e-31
-4.6201144626396e-31
-1.1399182737102e-30
-2.7154046500805e-30
-6.2500900569324e-30
-1.3910964184327e-29
-2.9960889424695e-29
-6.2483622925964e-29
-1.2625850404404e-28
-2.4733708900509e-28
-4.6998754612353e-28
-8.6670233782159e-28
-1.5518230807194e-27
-2.6989167765376e-27
-4.5612365527903e-27
-7.4933572278867e-27
-1.1970427034427e-26
-1.8599608945344e-26
-2.8116575233411e-26
-4.1358928846203e-26
-5.9208829310436e-26
-8.2499536337936e-26
-1.1188543603582e-25
-1.4768227946485e-25
-1.8969306499769e-25
-2.3704373522465e-25
-2.8805956806205e-25
-3.4021556524598e-25
-3.9019039925769e-25
-4.340426853344e-25
-4.6751110564362e-25
-4.8641852722365e-25
-4.871384851173e-25
-4.6706479331233e-25
-4.2501592376733e-25
-3.6150816521357e-25
-2.7884623779022e-25
-1.8100517516526e-25
-7.3308670586966e-26
3.8059066460689e-26
1.4664466254024e-25
2.4634125451917e-25
3.3194743912316e-25
3.9959978064714e-25
4.4703132853736e-25
4.7363696861498e-25
4.8035550247155e-25
4.6940297214517e-25
4.4390816137371e-25
4.07507644862e-25
3.6395454671622e-25
3.167843509306e-25
2.6906576174845e-25
2.232480761015e-25
1.8110170311632e-25
1.4373734394077e-25
1.1168284236033e-25
8.4994741100059e-26
6.3383294285735e-26
4.6333855790951e-26
3.3212878537969e-26
2.335209725869e-26
4.6810353889132e-26
0
0
0
0
3.602292575741e-71
2.6447530010336e-59
-2.346853156077e-57
-3.3774917860483e-55
-1.762600353192e-53
-5.7562753120104e-52
-1.374085155032e-50
-2.5862864728619e-49
-4.0163500011561e-48
-5.3047136908102e-47
-6.0902400282527e-46
-6.178555387014e-45
-5.6104638094425e-44
-4.607365961706e-43
-3.4508837629061e-42
-2.3741564388939e-41
-1.5093876141008e-40
-8.9134846874635e-40
-4.9113018347738e-39
-2.534859775905e-38
-1.229775866887e-37
-5.6253886928597e-37
-2.432947278372e-36
-9.9734517301272e-36
-3.8838889196923e-35
-1.4397371014804e-34
-5.089831112132e-34
-1.7189676506409e-33
-5.5546447112992e-33
-1.7198704442881e-32
-5.1093420597761e-32
-1.4581433892699e-31
-4.0022043220045e-31
-1.0576087757058e-30
-2.6934507013004e-30
-6.6168890511719e-30
-1.569407694479e-29
-3.5967214197688e-29
-7.9707002417074e-29
-1.7092811287794e-28
-3.5493356062027e-28
-7.1411483433174e-28
-1.3929322473376e-27
-2.6355415526082e-27
-4.8395921659542e-27
-8.6288383923293e-27
-1.4944833904428e-26
-2.5153622149326e-26
-4.1156748303124e-26
-6.5487387760525e-26
-1.0136299644692e-25
-1.5265768268195e-25
-2.2375340235788e-25
-3.1923246525303e-25
-4.4338772848025e-25
-5.995528012271e-25
-7.8929154567742e-25
-1.01152966591e-24
-1.2617532723969e-24
-1.5314295219754e-24
-1.8078118463673e-24
-2.0742683965755e-24
-2.3112140382953e-24
-2.4976380258603e-24
-2.6131140267512e-24
-2.6400757339096e-24
-2.5660620797693e-24
-2.385601096954e-24
-2.1014234362734e-24
-1.7247768622883e-24
-1.2747404579627e-24
-7.7658962278703e-25
-2.5941174178459e-25
2.4671088582784e-25
7.1357173614204e-25
1.1173876640082e-24
1.4407114242017e-24
1.6735091412741e-24
1.8133387542724e-24
1.8646992769696e-24
1.8377291416501e-24
1.7464991672992e-24
1.6071658006942e-24
1.4362268382961e-24
1.2490658939125e-24
1.0588984720663e-24
8.7615700009803e-25
7.0828720398868e-25
5.5988185285639e-25
4.3305313400773e-25
3.2794030476605e-25
2.4326028817167e-25
1.7682959663359e-25
1.260104835939e-25
8.8057733248681e-26
1.7334732733762e-25
0
0
0
0
3.5472782785982e-70
1.8182710796991e-58
-1.1315309014186e-56
-1.8573445813801e-54
-9.8889320256527e-53
-3.2482397768933e-51
-7.7628987895151e-50
-1.459791094492e-48
-2.2624012137304e-47
-2.980154710645e-46
-3.4108877569101e-45
-3.4486782478815e-44
-3.1204000655302e-43
-2.5529760707964e-42
-1.9048447437245e-41
-1.3053818356639e-40
-8.2660798518874e-40
-4.8617671609563e-39
-2.6679175371845e-38
-1.3713337300527e-37
-6.6254454796299e-37
-3.0180717981612e-36
-1.2998306062712e-35
-5.3059904466084e-35
-2.0575248350784e-34
-7.5946808215477e-34
-2.6734291875066e-33
-8.9900697083412e-33
-2.8924963331594e-32
-8.9171204399229e-32
-2.6375306006974e-31
-7.4942427424734e-31
-2.0479214732971e-30
-5.3878732581655e-30
-1.3660661466493e-29
-3.3410229022405e-29
-7.888916752547e-29
-1.799857787816e-28
-3.9707479666733e-28
-8.4767523140275e-28
-1.7522663880024e-27
-3.5095912547438e-27
-6.814812486273e-27
-1.2836042618438e-26
-2.3464513200497e-26
-4.1648876006737e-26
-7.1812455378199e-26
-1.203316437862e-25
-1.9602332222222e-25
-3.1055099013902e-25
-4.7861864758248e-25
-7.1778800375309e-25
-1.0477414806399e-24
-1.4888353184084e-24
-2.0598560415954e-24
-2.7750144875361e-24
-3.6403773440796e-24
-4.6501244777384e-24
-5.7831945696065e-24
-7.0009957559854e-24
-8.2468665996371e-24
-9.4478433523395e-24
-1.0519015015278e-23
-1.13703545584e-23
-1.1915463262319e-23
-1.2081241188633e-23
-1.1817193950056e-23
-1.1102983816527e-23
-9.9529759252216e-24
-8.4169123007749e-24
-6.5764091669112e-24
-4.5376158765242e-24
-2.4209750056592e-24
-3.4946741885439e-25
1.5630694666555e-24
3.2220297717657e-24
4.559329361802e-24
5.5371864813396e-24
6.1482482500114e-24
6.4124526820286e-24
6.3714272084139e-24
6.0814571931019e-24
5.6060969481819e-24
5.0093648052497e-24
4.3502138370463e-24
3.6786643190107e-24
3.0336841425342e-24
2.4426565821264e-24
1.9221086369168e-24
1.4792946148457e-24
1.1142288286644e-24
8.2181763476492e-25
5.9382994262818e-25
4.2054372678399e-25
2.9199625079312e-25
5.6421058008825e-25
0
0
0
0
2.8982544633942e-69
1.0903670319797e-57
-4.5398202050738e-56
-8.9761755790476e-54
-4.8949890619597e-52
-1.6191523960403e-50
-3.8762470541756e-49
-7.2848370614368e-48
-1.1269631913091e-46
-1.4807318436731e-45
-1.6896718547338e-44
-1.702745297293e-43
-1.5352315587395e-42
-1.2514317698285e-41
-9.3017424577911e-41
-6.3495946053185e-40
-4.0047885808874e-39
-2.345954860186e-38
-1.2820995416322e-37
-6.5629323505266e-37
-3.1576153356403e-36
-1.4323486427519e-35
-6.142821320484e-35
-2.4968781250649e-34
-9.6408240103899e-34
-3.5432813945607e-33
-1.2418838978711e-32
-4.1579656379411e-32
-1.3319429803721e-31
-4.0881043058104e-31
-1.2038405704223e-30
-3.4053601744867e-30
-9.2640785384269e-30
-2.4263300858676e-29
-6.1240394602093e-29
-1.4909733064482e-28
-3.5044730560363e-28
-7.9588384465644e-28
-1.7477596566576e-27
-3.7138910865205e-27
-7.6415813745129e-27
-1.5234112466066e-26
-2.9443345520146e-26
-5.5199274349282e-26
-1.0043394120165e-25
-1.7743463098047e-25
-3.0451054019636e-25
-5.078709395915e-25
-8.2348992943511e-25
-1.2985825729043e-24
-1.9921634572793e-24
-2.9740414729167e-24
-4.3215761494229e-24
-6.1136363151052e-24
-8.4215032860829e-24
-1.1296958456602e-23
-1.475845012023e-23
-1.877694973052e-23
-2.3263734675714e-23
-2.8062695914322e-23
-3.2949699446161e-23
-3.7640926121654e-23
-4.1810974914299e-23
-4.5119970182516e-23
-4.7247216617172e-23
-4.7927431259849e-23
-4.6984595807387e-23
-4.435828668636e-23
-4.0118078791843e-23
-3.4463212197021e-23
-2.7706899255847e-23
-2.0247031123782e-23
-1.2527163249783e-23
-4.9931136661354e-24
1.948968740474e-24
7.9676844071235e-24
1.2830568547929e-23
1.6415240107437e-23
1.8707449402282e-23
1.978782686846e-23
1.9810490193907e-23
1.8977342479091e-23
1.7511874260396e-23
1.5635683460091e-23
1.3549952572346e-23
1.1423005486144e-23
9.3840199936668e-24
7.5221508191407e-24
5.8898014946786e-24
4.5085786416353e-24
3.3765204079828e-24
2.4754311054164e-24
1.7774873317982e-24
1.2506283409178e-24
8.6254802690357e-25
1.6352623405574e-24
0
0
0
0
2.0212840853312e-68
5.7934977874445e-57
-1.4592582863423e-55
-3.8536145501604e-53
-2.1632288261119e-51
-7.2161167254164e-50
-1.7316384761234e-48
-3.253591100479e-47
-5.025281369646e-46
-6.5870159842668e-45
-7.4947366984081e-44
-7.5283019542685e-43
-6.7640966839071e-42
-5.4935737549186e-41
-4.0678602699531e-40
-2.7660287421582e-39
-1.7376547419651e-38
-1.0137890920413e-37
-5.5178448753483e-37
-2.8128381731553e-36
-1.3476809431261e-35
-6.0875369793774e-35
-2.599628059708e-34
-1.0521501225354e-33
-4.0450040109146e-33
-1.4802085293886e-32
-5.1653432637336e-32
-1.7218242869005e-31
-5.4912644269943e-31
-1.6779410685491e-30
-4.9190480843884e-30
-1.3852301556887e-29
-3.7514348600942e-29
-9.7807222503125e-29
-2.457392383826e-28
-5.9554087098819e-28
-1.3933473019397e-27
-3.1497144537524e-27
-6.8845898860037e-27
-1.456098045808e-26
-2.9819493104198e-26
-5.9167131437311e-26
-1.1381199583172e-25
-2.1235547919203e-25
-3.845317059496e-25
-6.7609030156496e-25
-1.1547219736817e-24
-1.9166048765101e-24
-3.0927051063491e-24
-4.8534385856657e-24
-7.4097878915412e-24
-1.1008613783349e-23
-1.5919891975837e-23
-2.2414124704107e-23
-3.0729348942608e-23
-4.1028989938805e-23
-5.3354113075536e-23
-6.7576034298891e-23
-8.3357221636503e-23
-1.0012935333558e-22
-1.170967680725e-22
-1.3327107178917e-22
-1.4753845926285e-22
-1.5875591417539e-22
-1.6586680661025e-22
-1.6802166867434e-22
-1.6468721730953e-22
-1.5572680946916e-22
-1.4143871129595e-22
-1.2254443540585e-22
-1.0012693943495e-22
-7.5526277218558e-23
-5.020685855264e-23
-2.5614564021829e-23
-3.0428649061724e-24
1.6475227826385e-23
3.2237509848325e-23
4.3899834565233e-23
5.1461604490035e-23
5.5216593032686e-23
5.5680084336722e-23
5.3504942150404e-23
4.9398638890071e-23
4.4050961782847e-23
3.8078769281603e-23
3.1990555701079e-23
2.6170346583447e-23
2.0878032411619e-23
1.6261846831945e-23
1.2378275214178e-23
9.2150458485641e-24
6.7137326492809e-24
4.7896002256841e-24
3.3474116768774e-24
2.2928344410087e-24
4.2640266886674e-24
0
0
0
0
1.2280552700834e-67
2.7614091696559e-56
-3.2490663287468e-55
-1.4812683891619e-52
-8.6151733503756e-51
-2.9032798444664e-49
-6.9888005546282e-48
-1.3133619738241e-46
-2.0258094169914e-45
-2.6494782289085e-44
-3.0062077859539e-43
-3.0101458308064e-42
-2.6953378481141e-41
-2.1811576140763e-40
-1.6090263457805e-39
-1.0898567327636e-38
-6.81949857186e-38
-3.9626046546011e-37
-2.1479301156359e-36
-1.0904112933106e-35
-5.2024522236268e-35
-2.3400271896433e-34
-9.9502384151808e-34
-4.0098590527092e-33
-1.534923609236e-32
-5.5923624436905e-32
-1.9429655000547e-31
-6.448187683491e-31
-2.047358993174e-30
-6.228182295916e-30
-1.8176866301354e-29
-5.095698034128e-29
-1.3737681580602e-28
-3.565428054911e-28
-8.9172361304183e-28
-2.1511586081963e-27
-5.0097399608888e-27
-1.1272272193684e-26
-2.4524041644419e-26
-5.16258396282e-26
-1.0522714806451e-25
-2.0780081623392e-25
-3.9781561471846e-25
-7.3870653431873e-25
-1.3311984815916e-24
-2.329190861032e-24
-3.9587241703771e-24
-6.5384682707387e-24
-1.0498723503269e-23
-1.6394272777116e-23
-2.4904894943164e-23
-3.6816437727433e-23
-5.297563675481e-23
-7.4213899263794e-23
-1.0123936061456e-22
-1.3450255153176e-22
-1.7404828875555e-22
-2.1937362539721e-22
-2.6931713061776e-22
-3.2200657486036e-22
-3.7488882370536e-22
-4.248568202318e-22
-4.6847464158029e-22
-5.0228476900983e-22
-5.2316500282335e-22
-5.28689437745e-22
-5.1744178405072e-22
-4.8923207994645e-22
-4.4517970801827e-22
-3.8764484510611e-22
-3.2001361191312e-22
-2.4636487954816e-22
-1.7106460951677e-22
-9.8343438039173e-23
-3.1913378119987e-23
2.5329572529414e-23
7.1486225890544e-23
1.0570736834434e-22
1.2812765924489e-22
1.3970438753892e-22
1.4199506669774e-22
1.3691095267604e-22
1.2648046355468e-22
1.1264876236432e-22
9.7129591491782e-23
8.1314998818502e-23
6.6239646401104e-23
5.259005270151e-23
4.074577480054e-23
3.0838951232682e-23
2.2820145086097e-23
1.6521214988374e-23
1.170918807514e-23
8.1281711017133e-24
5.5288041556519e-24
1.0085992828672e-23
0
0
0
0
6.6038182923689e-67
1.1925555488388e-55
-7.4160286772384e-56
-5.124815176753e-52
-3.1151001881427e-50
-1.062795986986e-48
-2.5687052191937e-47
-4.8303592157491e-46
-7.4427843551348e-45
-9.7143155834324e-44
-1.0993033506508e-42
-1.0973699451512e-41
-9.7930797315363e-41
-7.8966202919561e-40
-5.8035763902167e-39
-3.9158511278128e-38
-2.4405652398724e-37
-1.4124239903737e-36
-7.6246879491131e-36
-3.8546568462683e-35
-1.8313713489884e-34
-8.2024670818077e-34
-3.4729378134351e-33
-1.3935388687231e-32
-5.3111832290306e-32
-1.926653972321e-31
-6.6645033737598e-31
-2.2020435159709e-30
-6.960807588423e-30
-2.1081265731201e-29
-6.1251501146823e-29
-1.7094503458269e-28
-4.587900533753e-28
-1.1853658038191e-27
-2.95123088992e-27
-7.0871080119163e-27
-1.6429574581559e-26
-3.6798247883679e-26
-7.9689552861749e-26
-1.6697763917093e-25
-3.3875678454659e-25
-6.6582887727252e-25
-1.2686375668187e-24
-2.3445113563305e-24
-4.2046650228997e-24
-7.3212428048555e-24
-1.2382511931372e-23
-2.035100936699e-23
-3.2515160901987e-23