/*--------------------------------*- C++ -*----------------------------------*\
  =========                 |
  \\      /  F ield         | OpenFOAM: The Open Source CFD Toolbox
   \\    /   O peration     | Website:  https://openfoam.org
    \\  /    A nd           | Version:  7
     \\/     M anipulation  |
\*---------------------------------------------------------------------------*/
FoamFile
{
    version     2.0;
    format      ascii;
    class       volScalarField;
    location    "2.5";
    object      alpha.water;
}
// * * * * * * * * * * * * * * * * * * * * * * * * * * * * * * * * * * * * * //

dimensions      [0 0 0 0 0 0 0];

internalField   nonuniform List<scalar> 
6000
(
0
0
0
0
0
0
0
0
0
0
0
0
0
0
0
0
0
0
0
0
0
0
0
0
0
0
0
0
0
0
0
0
0
0
0
0
0
0
0
0
0
0
0
0
0
0
0
0
0
0
0
0
0
0
0
0
0
0
0
0
0
0
0
0
0
0
0
0
0
0
0
0
0
0
0
0
0
0
0
0
0
0
0
0
0
0
0
0
0
0
0
0
0
0
0
0
0
0
0
0
0
0
0
0
0
0
0
0
0
0
0
0
0
0
0
0
0
0
0
0
0
0
0
0
0
0
0
0
0
0
0
0
0
0
0
0
0
0
0
0
0
0
0
0
0
0
0
0
0
0
0
0
0
0
0
0
0
0
0
0
0
0
0
0
0
0
0
0
0
0
0
0
0
0
0
0
0
0
0
0
0
0
0
0
0
0
0
0
0
0
0
0
0
0
0
0
0
0
0
0
0
0
0
0
0
0
0
0
0
0
0
0
0
0
0
0
0
0
0
0
0
0
0
0
0
0
0
0
0
0
0
0
0
0
0
0
0
0
0
0
0
0
0
0
0
0
0
0
0
0
0
0
0
0
0
0
0
0
0
0
0
0
0
0
0
0
0
0
0
0
0
0
0
0
0
0
0
0
0
0
0
0
0
0
0
0
0
0
0
0
0
0
0
0
0
0
0
0
0
0
0
0
0
0
0
0
0
0
0
0
0
0
0
0
0
0
0
0
0
0
0
0
0
0
0
0
0
0
0
0
0
0
0
0
0
0
0
0
0
0
0
0
0
0
0
0
0
0
0
0
0
0
0
0
0
0
0
0
0
0
0
0
0
0
0
0
0
0
0
0
0
0
0
0
0
0
0
0
0
0
0
0
0
0
0
0
0
0
0
0
0
0
0
0
0
0
0
0
0
0
0
0
0
0
0
0
0
0
0
6.6286912361071e-67
5.3339640698476e-65
2.1294568682111e-63
5.6425780589813e-62
1.1158149694282e-60
1.756355312851e-59
2.2920266371315e-58
2.5506604561918e-57
2.4709100016476e-56
2.116625214795e-55
1.6233070125444e-54
1.1258566423851e-53
7.1199625347137e-53
4.1342352083863e-52
2.217201579939e-51
1.1038618519954e-50
5.124400535545e-50
2.2267837613819e-49
9.0889231419336e-49
3.4952240203411e-48
1.2698637502201e-47
4.3695095125838e-47
1.4271646640209e-46
4.4336991077963e-46
1.3125542081009e-45
3.7090963222571e-45
1.0020759733647e-44
2.5920529446568e-44
6.4280607068978e-44
1.5302038157591e-43
3.500696546012e-43
7.7048495061171e-43
1.6331126225638e-42
3.3367246088814e-42
6.5775050917582e-42
1.2519867709845e-41
2.3029041745516e-41
4.0964719884463e-41
7.0518711198578e-41
1.1755596751567e-40
1.8988955180247e-40
2.9739242791955e-40
4.5182879791807e-40
6.6629008596545e-40
9.5415184065938e-40
1.327529961378e-39
1.7953223037812e-39
2.3610246773836e-39
3.0206385676064e-39
3.7610460484271e-39
4.5592592172137e-39
5.3828510908039e-39
6.1917379663744e-39
6.9412535912758e-39
7.586220780996e-39
8.0854855985411e-39
8.4063104045681e-39
8.5279260833367e-39
8.4437490628292e-39
8.16190425215e-39
7.704025400093e-39
7.1025657389542e-39
6.3970758285337e-39
5.6300160616779e-39
4.842717489973e-39
4.071981821418e-39
3.3476656731356e-39
2.6913910139237e-39
2.1163412184325e-39
1.6279512231862e-39
1.2252184285392e-39
9.023373667653e-40
6.5038654282058e-40
4.588625746538e-40
3.1692823939736e-40
2.1431998371743e-40
1.4191933161474e-40
9.2034164082696e-41
5.8456694136534e-41
3.6370069071286e-41
2.2167840669074e-41
1.3237766500725e-41
7.7456658986222e-42
4.4411361598153e-42
2.4954990578965e-42
1.3743062524584e-42
7.4183157733278e-43
3.9251287469949e-43
2.0359101955379e-43
1.0352544912768e-43
9.9332721168463e-44
0
0
0
0
0
0
0
-6.1333030195021e-57
-4.62882543842e-55
-1.7358746286675e-53
-4.3122413152677e-52
-7.9816677500025e-51
-1.1738760062918e-49
-1.4285841898628e-48
-1.4792761571792e-47
-1.3300133836587e-46
-1.0543573207639e-45
-7.4581187027476e-45
-4.7521879231461e-44
-2.7484027366763e-43
-1.451584345202e-42
-7.0354226788258e-42
-3.140881062387e-41
-1.2950480425228e-40
-4.9391611212038e-40
-1.7426603017566e-39
-5.6781284384877e-39
-1.7005925794753e-38
-4.6355903543477e-38
-1.1264322679338e-37
-2.3233653701883e-37
-3.476219639736e-37
-4.2620022357899e-38
2.36742375866e-36
1.2404841082067e-35
4.600137070412e-35
1.4499915662009e-34
4.1117095822068e-34
1.0760813566955e-33
2.6357683740942e-33
6.0949303861206e-33
1.3383486259923e-32
2.8024618111847e-32
5.6139500450567e-32
1.0785787187828e-31
1.9915142589976e-31
3.5400693442473e-31
6.0670511646883e-31
1.0037828668167e-30
1.6050658470741e-30
2.4830229467093e-30
3.719684465551e-30
5.4005477666556e-30
7.6053030776436e-30
1.0395828419827e-29
1.3802636870962e-29
1.7811657178254e-29
2.2353699739286e-29
2.7299026703481e-29
3.2458999476529e-29
3.7595826778722e-29
4.2440122310104e-29
4.6714556025766e-29
5.0160655200503e-29
5.2565065705397e-29
5.3781505186491e-29
5.3745262224163e-29
5.2478292588161e-29
5.008448229807e-29
4.6736173941075e-29
4.26542918987e-29
3.8085143095486e-29
3.3277126250205e-29
2.8460196694158e-29
2.3830149608871e-29
1.9538801133985e-29
1.5690167258805e-29
1.2341929277234e-29
9.5109324650774e-30
7.1812220529373e-30
5.3131480009916e-30
3.8522980424469e-30
2.7373606012193e-30
1.9063926846092e-30
1.3013075024161e-30
8.7066145651173e-31
5.7099371348219e-31
3.6705704492135e-31
2.3129219540843e-31
1.4286187677131e-31
8.6496937757209e-32
5.133503036061e-32
2.9864434742343e-32
1.7030213025272e-32
9.5193775279192e-33
5.2157495272066e-33
2.8011823970956e-33
1.4746167505931e-33
7.6089824859175e-34
7.4997453392801e-34
0
0
0
0
0
0
-2.7207819004306e-55
-2.1305940093685e-53
-8.2930624048421e-52
-2.1392668679888e-50
-4.1142592198195e-49
-6.2923147262245e-48
-7.9714082075446e-47
-8.6036548639499e-46
-8.0758827775452e-45
-6.6969059057154e-44
-4.9671437904996e-43
-3.3283258976898e-42
-2.0314498692426e-41
-1.137211327958e-40
-5.873163363666e-40
-2.8124184145305e-39
-1.254164438125e-38
-5.228123488055e-38
-2.0441093223982e-37
-7.5181374539208e-37
-2.6079553884764e-36
-8.5523149953426e-36
-2.6568051637931e-35
-7.8329930238363e-35
-2.195315270792e-34
-5.857230518632e-34
-1.4895642811229e-33
-3.6146378362363e-33
-8.3771627420783e-33
-1.855498476049e-32
-3.9297897091719e-32
-7.960339511659e-32
-1.5421581323552e-31
-2.8561502999738e-31
-5.0523225314086e-31
-8.5222676674873e-31
-1.3671288492887e-30
-2.0766014250166e-30
-2.96489431779e-30
-3.9278444768026e-30
-4.7071775410715e-30
-4.8069141075798e-30
-3.3999514424343e-30
7.593101087824e-31
9.3927225522415e-30
2.46977973255e-29
4.9260216950046e-29
8.5858722663214e-29
1.3715791239208e-28
2.0530770189843e-28
2.9149432476737e-28
3.9551070571641e-28
5.1542711900282e-28
6.4744076728775e-28
7.8596292523056e-28
9.2396653453346e-28
1.0535719069419e-27
1.1668028587667e-27
1.2564103249807e-27
1.3166435798616e-27
1.3438548337045e-27
1.33685017919e-27
1.2969427135545e-27
1.2277129391323e-27
1.1345270948723e-27
1.0238972796474e-27
9.0278287485511e-28
7.7792986216715e-28
6.5532608944168e-28
5.3982202009898e-28
4.3493474228535e-28
3.4282420350216e-28
2.6440922079649e-28
1.9957893043612e-28
1.4745286943547e-28
1.0664800045488e-28
7.5520947325978e-29
5.2365596328394e-29
3.5557587887514e-29
2.3646419692642e-29
1.540212468912e-29
9.8267465271882e-30
6.1415972251839e-30
3.7602881916659e-30
2.2555496759553e-30
1.3255499911714e-30
7.6325774778846e-31
4.3062062575861e-31
2.3805776154605e-31
1.289578076289e-31
6.8454679516538e-32
3.56090120178e-32
1.8152138139599e-32
1.7470169359267e-32
0
0
0
0
0
9.032503530899e-57
-9.8314124493775e-54
-7.8887655105364e-52
-3.073698247586e-50
-7.8938978779855e-49
-1.508541223295e-47
-2.2907348578429e-46
-2.880534173941e-45
-3.0858724944719e-44
-2.8753292759194e-43
-2.3673331730613e-42
-1.74378207642e-41
-1.1607686913794e-40
-7.0406472151131e-40
-3.9183516422228e-39
-2.0126855782302e-38
-9.5902249074955e-38
-4.2576576251623e-37
-1.767962293621e-36
-6.8898469011887e-36
-2.5274853998695e-35
-8.7514002422558e-35
-2.86696595746e-34
-8.9056363765686e-34
-2.6281745963092e-33
-7.381733523323e-33
-1.9763905135586e-32
-5.0515774598212e-32
-1.2342142550186e-31
-2.8858710396775e-31
-6.4646775672709e-31
-1.3887062205247e-30
-2.8630400979722e-30
-5.6690131582277e-30
-1.0787165198432e-29
-1.9734551422421e-29
-3.472196713775e-29
-5.8762783042446e-29
-9.5652618255433e-29
-1.4971053105063e-28
-2.2515829447328e-28
-3.2503036745725e-28
-4.4956838020182e-28
-5.9416815550869e-28
-7.471078672392e-28
-8.8746650553555e-28
-9.8379611460924e-28
-9.9418073515717e-28
-8.6824419713722e-28
-5.5142575800994e-28
8.5629982363319e-30
8.53692892293e-28
2.0070754149894e-27
3.4653762517239e-27
5.1937358225947e-27
7.1245176528229e-27
9.1606502199737e-27
1.1183541327886e-26
1.3064687695916e-26
1.4679367744897e-26
1.5920363616863e-26
1.6709614110425e-26
1.7006064113435e-26
1.6808663191604e-26
1.6154319914296e-26
1.5111454005838e-26
1.3770438343231e-26
1.2232576381382e-26
1.059928323893e-26
8.9628705008624e-27
7.3998706496327e-27
5.9672965008947e-27
4.7017275647492e-27
3.6207326525027e-27
2.7259185052962e-27
2.0068386514919e-27
1.4450743383583e-27
1.0179621236284e-27
7.0163954996699e-28
4.7326846883873e-28
3.1244658055139e-28
2.0191872085315e-28
1.2775055543685e-28
7.9137551207788e-29
4.8004291689047e-29
2.8516449491059e-29
1.6590734138167e-29
9.4541873673592e-30
5.2771814077927e-30
2.8855401622023e-30
1.54569941355e-30
8.1118319620656e-31
4.1708998118395e-31
2.1012429682626e-31
1.9767989278534e-31
0
0
0
0
0
3.5579249091182e-55
-1.7535977657019e-52
-1.454716642088e-50
-5.699288699024e-49
-1.4624971536681e-47
-2.7859343365399e-46
-4.2122913576236e-45
-5.2710946569412e-44
-5.6177397755813e-43
-5.2067242693576e-42
-4.2639052143552e-41
-3.1240347654504e-40
-2.06855810826e-39
-1.2481584790661e-38
-6.9110382281913e-38
-3.5322818839503e-37
-1.6749918545626e-36
-7.4017051236206e-36
-3.0597887329674e-35
-1.1873356699591e-34
-4.3380497562171e-34
-1.4963418710459e-33
-4.8847091160313e-33
-1.5124139967763e-32
-4.4502951375927e-32
-1.246738993595e-31
-3.3307553509649e-31
-8.4984369986177e-31
-2.0737485932301e-30
-4.8454415691506e-30
-1.0853310772676e-29
-2.332862840165e-29
-4.8163506599511e-29
-9.5589817619033e-29
-1.8251226984418e-28
-3.3546016098901e-28
-5.9387879925669e-28
-1.0131122937592e-27
-1.6659664463002e-27
-2.6412799505159e-27
-4.0376418762179e-27
-5.9504940448078e-27
-8.4515669731014e-27
-1.1561046801826e-26
-1.5214998018047e-26
-1.9233048085837e-26
-2.3293578660767e-26
-2.6924889870375e-26
-2.9520257251014e-26
-3.0382019601177e-26
-2.8794888938424e-26
-2.4122297560995e-26
-1.591313492768e-26
-4.0013474935057e-27
1.1420872933232e-26
2.977325692876e-26
5.0111541127621e-26
7.1206684656183e-26
9.1670093232911e-26
1.1010672156294e-25
1.2527235210896e-25
1.3621049421435e-25
1.4234835405293e-25
1.435391794209e-25
1.4004812159442e-25
1.3248838671892e-25
1.2172191489755e-25
1.0874285585003e-25
9.4562343010924e-26
8.0110009856496e-26
6.616246842675e-26
5.3302962365732e-26
4.1910894908782e-26
3.2175829830959e-26
2.4128297741546e-26
1.7679273001947e-26
1.2661137617276e-26
8.8647651666108e-27
6.0694781013094e-27
4.0646022967005e-27
2.662878200673e-27
1.7069748188946e-27
1.0708153048106e-27
6.5747095981947e-28
3.9515777313462e-28
2.3251387819415e-28
1.3395520414221e-28
7.5569498014658e-29
4.1749362195986e-29
2.2589476816416e-29
1.1971510597649e-29
6.2145345666099e-30
3.160186474116e-30
1.5742951055335e-30
1.44966690617e-30
0
0
0
0
8.8536805856715e-67
6.9851146587847e-54
-2.054214925561e-51
-1.7755867582113e-49
-7.0099982383039e-48
-1.7997094847882e-46
-3.4207460382182e-45
-5.154178405891e-44
-6.4230062613678e-43
-6.8144035373683e-42
-6.2858192728365e-41
-5.1224823881067e-40
-3.7345297062112e-39
-2.4605066470893e-38
-1.4772895624775e-37
-8.1393519736862e-37
-4.139720762444e-36
-1.9535365964109e-35
-8.591367370596e-35
-3.5348908208234e-34
-1.3653628481807e-33
-4.9659057809314e-33
-1.7053243797169e-32
-5.542856139003e-32
-1.7089714115526e-31
-5.0081467723099e-31
-1.3974872113944e-30
-3.7193307975446e-30
-9.4554737158843e-30
-2.2993372822009e-29
-5.355149758568e-29
-1.195893028677e-28
-2.56344578083e-28
-5.2794200278537e-28
-1.0455859659266e-27
-1.9929175397958e-27
-3.6583375459289e-27
-6.4716665663428e-27
-1.1038826954494e-26
-1.8163618301007e-26
-2.8841070484544e-26
-4.4203939289229e-26
-6.5404785328451e-26
-9.3422815828309e-26
-1.2879843846028e-25
-1.7131861128589e-25
-2.1969940669516e-25
-2.7133307790898e-25
-3.221781305635e-25
-3.6686564461801e-25
-3.9906936786128e-25
-4.1214193250134e-25
-3.9996202310841e-25
-3.5787984290391e-25
-2.8360576106486e-25
-1.7787303857654e-25
-4.4727708322233e-26
1.0864407352071e-25
2.7255906383989e-25
4.3586944819684e-25
5.8722850736527e-25
7.1638852609097e-25
8.1532626966997e-25
8.7902832516719e-25
9.0583653792008e-25
8.97336215585e-25
8.578482109679e-25
7.9364463496695e-25
7.1203725803443e-25
6.2048584147058e-25
5.2584593858692e-25
4.3383201720273e-25
3.4872351491128e-25
2.7329872284423e-25
2.089509497278e-25
1.5592593185244e-25
1.1361795173572e-25
8.0871127855898e-26
5.6247276026388e-26
3.8238242751565e-26
2.5415335114722e-26
1.6519481693234e-26
1.0502450184746e-26
6.5322170244404e-27
3.9753990086046e-27
2.3676556832458e-27
1.380179429398e-27
7.8756749675565e-28
4.3997335806352e-28
2.4065672214427e-28
1.2889771050696e-28
6.7609353293294e-29
3.4731056948367e-29
1.7474744578531e-29
8.6122012670268e-30
7.7708703172455e-30
0
0
0
0
3.5837841474526e-65
9.1126619657484e-53
-1.7727493464548e-50
-1.6119034180585e-48
-6.4253347142541e-47
-1.651919489344e-45
-3.1347760931179e-44
-4.7089835096826e-43
-5.8459446593518e-42
-6.1758648038633e-41
-5.6710831268467e-40
-4.5998565719552e-39
-3.3374377773668e-38
-2.1882027209626e-37
-1.307372322029e-36
-7.1678310206358e-36
-3.6277139840565e-35
-1.703537937731e-34
-7.4553532927539e-34
-3.0525825763368e-33
-1.1733743967488e-32
-4.2471464405562e-32
-1.4515447658559e-31
-4.6956684451248e-31
-1.4409737161946e-30
-4.2031447477484e-30
-1.1674588786284e-29
-3.0929837668527e-29
-7.8278152859069e-29
-1.8951043024077e-28
-4.3944857595254e-28
-9.7717576348595e-28
-2.085895235938e-27
-4.2785262750882e-27
-8.4404997448218e-27
-1.6027659824658e-26
-2.9317196788696e-26
-5.169097740633e-26
-8.7903024538904e-26
-1.4424901960681e-25
-2.28522965069e-25
-3.496267844797e-25
-5.1670796079038e-25
-7.3775251348725e-25
-1.0176626443555e-24
-1.3559935212555e-24
-1.7446874148138e-24
-2.1662844444017e-24
-2.5931571976646e-24
-2.9882661500405e-24
-3.3077407483634e-24
-3.5052699761067e-24
-3.5378904235989e-24
-3.3723775292244e-24
-2.9911783728806e-24
-2.3967587028557e-24
-1.6134161508262e-24
-6.8601828522491e-25
3.2432084626228e-25
1.3470312787633e-24
2.3102777861237e-24
3.149228132087e-24
3.8130928365904e-24
4.2699060391853e-24
4.508478018458e-24
4.5374838149889e-24
4.3821398567046e-24
4.0792655651299e-24
3.6716777838075e-24
3.2028211728535e-24
2.7123390546599e-24
2.2330039097332e-24
1.7891273917964e-24
1.3963165132264e-24
1.0622724605544e-24
7.8825231033959e-25
5.7082090866328e-25
4.0358592190344e-25
2.7870460075506e-25
1.8805011021386e-25
1.240098313599e-25
7.9948194777898e-26
5.0400587199317e-26
3.1076384344467e-26
1.8744658033043e-26
1.1062485478285e-26
6.3888815727114e-27
3.6112391437566e-27
1.9980370940017e-27
1.0822264263149e-27
5.7391383460136e-28
2.9801051071822e-28
1.5153437746569e-28
7.546057807372e-29
3.6803546839715e-29
3.2566242537132e-29
0
0
0
0
7.211980712959e-64
8.8864697080782e-52
-1.1971746311223e-49
-1.1598059892195e-47
-4.6779724737783e-46
-1.2054240072632e-44
-2.2849245950278e-43
-3.4230869652955e-42
-4.2344622945678e-41
-4.4552679140483e-40
-4.073208309415e-39
-3.2886674147022e-38
-2.3748408868202e-37
-1.5495825152149e-36
-9.2130915365281e-36
-5.0263730302035e-35
-2.5313297735345e-34
-1.1827913016065e-33
-5.1506225978784e-33
-2.0984102447735e-32
-8.0258016197098e-32
-2.8905193684674e-31
-9.8295649221305e-31
-3.1639174062973e-30
-9.6606539538635e-30
-2.8037987551106e-29
-7.7488269168623e-29
-2.0426530891605e-28
-5.143777293252e-28
-1.2390906891837e-27
-2.8589894930899e-27
-6.3258792578901e-27
-1.3436850466443e-26
-2.7426719679558e-26
-5.3845116412729e-26
-1.0176016735257e-25
-1.8526759057094e-25
-3.2517068366564e-25
-5.5053267711251e-25
-8.9960769035088e-25
-1.419476297611e-24
-2.1636190700604e-24
-3.1867431496938e-24
-4.53650814243e-24
-6.2424067967504e-24
-8.3028901673328e-24
-1.0672733478093e-23
-1.3253377092371e-23
-1.5889268470566e-23
-1.8372841450978e-23
-2.0459600749252e-23
-2.1892941389692e-23
-2.243615792119e-23
-2.1907088247896e-23
-2.0209539174171e-23
-1.7355490567565e-23
-1.3473250967841e-23
-8.7990812925327e-24
-3.6528369690694e-24
1.598779963102e-24
6.5854234188965e-24
1.0975714266879e-23
1.4512559309576e-23
1.7036142127005e-23
1.8492086776643e-23
1.8925087935792e-23
1.8460732067868e-23
1.7279840768905e-23
1.559023527396e-23
1.3600400086388e-23
1.1498372701991e-23
9.4376741320371e-24
7.5305920521673e-24
5.8479217040028e-24
4.4235161753779e-24
3.2617213805072e-24
2.3458924641161e-24
1.6465705753589e-24
1.1283940713178e-24
7.5530224180066e-25
4.9398108727908e-25
3.1576332810472e-25
1.9732953810472e-25
1.2058850705278e-25
7.2076954725553e-26
4.2145115830984e-26
2.4112015739658e-26
1.3499660567596e-26
7.3973499553347e-27
3.967787263392e-27
2.0834782825593e-27
1.0711308324954e-27
5.3919898431919e-28
2.6579360985019e-28
1.2831015619964e-28
1.1140532278946e-28
0
0
0
0
9.6291785088342e-63
6.9090100345581e-51
-6.5493629309877e-49
-6.8828080134791e-47
-2.8162253956758e-45
-7.28036924972e-44
-1.3791645461533e-42
-2.0612036803345e-41
-2.541230445471e-40
-2.6632720714096e-39
-2.4244765620243e-38
-1.9486662616168e-37
-1.40060997433e-36
-9.0952063830247e-36
-5.3812373338657e-35
-2.9213483283475e-34
-1.4638895622169e-33
-6.8058409478282e-33
-2.9487175879366e-32
-1.1952282582589e-31
-4.5480363057014e-31
-1.6295767404e-30
-5.5129631152497e-30
-1.7652901954682e-29
-5.3619884041242e-29
-1.5480418738719e-28
-4.2557550891726e-28
-1.1159089539325e-27
-2.7951119539208e-27
-6.6972056907442e-27
-1.5369822418802e-26
-3.3824970027181e-26
-7.1461412883514e-26
-1.4507966057148e-25
-2.8329759662488e-25
-5.3253597694308e-25
-9.6441100104389e-25
-1.6837985688251e-24
-2.8360327996369e-24
-4.6107812788187e-24
-7.2393399581857e-24
-1.0981766476881e-23
-1.6100824017321e-23
-2.2821458422608e-23
-3.1277550134128e-23
-4.1451642236806e-23
-5.3117459648258e-23
-6.5798145646334e-23
-7.8753987163465e-23
-9.1011002395854e-23
-1.0143584399016e-22
-1.0885372711982e-22
-1.1219621257805e-22
-1.1065701839406e-22
-1.0382902460077e-22
-9.1796047515035e-23
-7.5159306038636e-23
-5.4989761225463e-23
-3.2711298818534e-23
-9.9328969866986e-24
1.1742582346953e-23
3.0901660802401e-23
4.6467047942381e-23
5.7787788966867e-23
6.4664210652355e-23
6.7311279813931e-23
6.6274019897595e-23
6.2314709937286e-23
5.6293047708586e-23
4.9057770329494e-23
4.1362699053124e-23
3.3813483438553e-23
2.6845032239886e-23
2.0724857355446e-23
1.557484912412e-23
1.140330810197e-23
8.1399391783508e-24
5.6683372304402e-24
3.8526330736912e-24
2.5569363513963e-24
1.6577172170203e-24
1.0502108298137e-24
6.5035103095563e-25
3.9376701432675e-25
2.3315942344902e-25
1.3504531026412e-25
7.6524380649068e-26
4.2431274824456e-26
2.3025160513723e-26
1.2229452719017e-26
6.3584366003788e-27
3.2365193176342e-27
1.6129877515736e-27
7.8712695796502e-28
3.7614126025689e-28
3.2057881713144e-28
0
0
0
0
9.5906412656914e-62
4.4605873092283e-50
-2.9557205504124e-48
-3.4608615231645e-46
-1.4410940405859e-44
-3.7416419021587e-43
-7.0875030417039e-42
-1.0570523435592e-40
-1.2991291328134e-39
-1.3563762601353e-38
-1.2295980576731e-37
-9.8388736951868e-37
-7.0389145253585e-36
-4.5490653727961e-35
-2.6783569090601e-34
-1.4468110875706e-33
-7.2135845163022e-33
-3.336686885965e-32
-1.4382587315562e-31
-5.7997050952259e-31
-2.1953925450644e-30
-7.8248982085696e-30
-2.633219731155e-29
-8.3868466339484e-29
-2.5337943088807e-28
-7.2756753974662e-28
-1.9892741555419e-27
-5.1874832114788e-27
-1.2921713868149e-26
-3.0788703402436e-26
-7.0263301019126e-26
-1.5376084856895e-25
-3.230110493162e-25
-6.5205030286018e-25
-1.2660204230989e-24
-2.3662911184569e-24
-4.260938345591e-24
-7.3971533837539e-24
-1.2388836461177e-23
-2.002897865103e-23
-3.1273501525481e-23
-4.7182474741857e-23
-6.8807636057842e-23
-9.7023010299774e-23
-1.3230816053662e-22
-1.7450954887365e-22
-2.226211961455e-22
-2.7463658993633e-22
-3.2752476745808e-22
-3.7737134858098e-22
-4.1969969839374e-22
-4.4995196139768e-22
-4.6407170641613e-22
-4.5909876519355e-22
-4.3367157611853e-22
-3.8833885532098e-22
-3.2561136373327e-22
-2.4973065944855e-22
-1.6618494471512e-22
-8.1050159385037e-23
-2.6620000955629e-25
7.1033415728885e-23
1.2903599624903e-22
1.7154105777102e-22
1.9800689364276e-22
2.0937538955626e-22
2.0773287048536e-22
1.9588351083086e-22
1.7691321349913e-22
1.5380861644238e-22
1.2917350882126e-22
1.0505982017379e-22
8.2908065258429e-23
6.3576337780356e-23
4.7429002175296e-23
3.4455481301383e-23
2.4394024224337e-23
1.684262298541e-23
1.1347093970788e-23
7.4631364802367e-24
4.7940772152826e-24
3.0088278291237e-24
1.8456118164117e-24
1.1067747333802e-24
6.4902949571859e-25
3.7226618323963e-25
2.0888775505761e-25
1.1468822675885e-25
6.1622368159138e-26
3.2406402066374e-26
1.6682000353888e-26
8.4068993535903e-27
4.1479519593274e-27
2.0039010063957e-27
9.4796724339386e-28
7.9331218269814e-28
0
0
0
0
7.600429966436e-61
2.4595041960432e-49
-1.1036638141877e-47
-1.5028981669094e-45
-6.3942470809233e-44
-1.6696153675934e-42
-3.1643844891463e-41
-4.7113637051219e-40
-5.7734133419568e-39
-6.0059375641282e-38
-5.4223383234402e-37
-4.3197499026247e-36
-3.0762030704906e-35
-1.9786045710439e-34
-1.1592597225541e-33
-6.2310124068744e-33
-3.0909993874427e-32
-1.4224461881303e-31
-6.0996512048083e-31
-2.4468014014346e-30
-9.213157411537e-30
-3.266314847286e-29
-1.0932753098862e-28
-3.4632556451129e-28
-1.040593417941e-27
-2.971580181942e-27
-8.0796743861589e-27
-2.0951824003515e-26
-5.1895808559658e-26
-1.2295101718915e-25
-2.7898442252529e-25
-6.0700285539934e-25
-1.2677679292912e-24
-2.5442861123914e-24
-4.9110517413904e-24
-9.1251313777166e-24
-1.6334415165163e-23
-2.8189215557743e-23
-4.693149838422e-23
-7.5423588531976e-23
-1.1706916861238e-22
-1.7557904991732e-22
-2.5454779398742e-22
-3.5683798591184e-22
-4.8381564921813e-22
-6.3453582783401e-22
-8.0502868212516e-22
-9.8786686093546e-22
-1.1721886010193e-21
-1.3442986628027e-21
-1.4888729634946e-21
-1.590668322324e-21
-1.6365133190055e-21
-1.6172622958892e-21
-1.5293605059593e-21
-1.3757098653239e-21
-1.1656383953283e-21
-9.1393956163098e-22
-6.3912369797887e-22
-3.6117172251455e-22
-9.9167556585518e-23
1.3080783066666e-22
3.1720869161717e-22
4.5379845726289e-22
5.3963218047671e-22
5.7835469841767e-22
5.7702287823582e-22
5.447066808099e-22
4.9111471693537e-22
4.2543734347194e-22
3.5552342615916e-22
2.8742629398255e-22
2.2528691897623e-22
1.714779024976e-22
1.269129051941e-22
9.1429150349536e-23
6.416845700361e-23
4.3906935649221e-23
2.9308189899801e-23
1.9095079899249e-23
1.2148768931688e-23
7.5508798452153e-24
4.5863991440076e-24
2.7232712896488e-24
1.5811537534719e-24
8.9789650438054e-25
4.9881481245551e-25
2.7114000190755e-25
1.4423111016453e-25
7.5092396567667e-26
3.8269858196769e-26
1.9093534727542e-26
9.3265812333993e-27
4.4606426352215e-27
2.0889984492857e-27
1.7169654721573e-27
0
0
0
0
4.9928189366952e-60
1.1821955197991e-48
-3.3412825923596e-47
-5.714419493442e-45
-2.497170667726e-43
-6.5679643546241e-42
-1.2464301987256e-40
-1.8533576394798e-39
-2.2650934677673e-38
-2.3481527612311e-37
-2.1115541040833e-36
-1.6749216581231e-35
-1.1873132907906e-34
-7.6005660255396e-34
-4.4314410703802e-33
-2.3700278380256e-32
-1.1697320182337e-31
-5.3553037917487e-31
-2.2844762579866e-30
-9.1156888765386e-30
-3.414180259602e-29
-1.2039346977481e-28
-4.0079504409594e-28
-1.2627202564191e-27
-3.7732533066983e-27
-1.0715625261881e-26
-2.8973581418102e-26
-7.471219850751e-26
-1.8401205231009e-25
-4.3348400079247e-25
-9.7798024094898e-25
-2.1155909540268e-24
-4.3929127532834e-24
-8.7645757266341e-24
-1.6817875187487e-23
-3.1063201161585e-23
-5.5271253245589e-23
-9.4808021798172e-23
-1.5688105543218e-22
-2.5057356392538e-22
-3.8651970093023e-22
-5.7608154251916e-22
-8.2994109849973e-22
-1.1561263708603e-21
-1.5576413049173e-21
-2.030038838158e-21
-2.5594203755228e-21
-3.1214121459056e-21
-3.6816146384171e-21
-4.1978260914736e-21
-4.6240232042362e-21
-4.9157010386803e-21
-5.0358186301741e-21
-4.9603633443087e-21
-4.6825103100461e-21
-4.2145420117724e-21
-3.5870778077604e-21
-2.8456612912655e-21
-2.0452510915384e-21
-1.2435434984607e-21
-4.9423897283239e-22
1.5868366718141e-22
6.8487744386855e-22
1.0693058448081e-21
1.3117054272193e-21
1.4242236848692e-21
1.4278725839145e-21
1.3485282806518e-21
1.2131467430908e-21
1.0466933679054e-21
8.7005893892228e-22
6.9901112985738e-22
5.4405361329305e-22
4.1095673480323e-22
3.0168702507945e-22
2.154842026199e-22
1.4989216534129e-22
1.0162228652479e-22
6.7195057643858e-23
4.3358674530879e-23
2.7316454214966e-23
1.6810256326761e-23
1.0108683158575e-23
5.9420061857744e-24
3.415227770346e-24
1.9198518740138e-24
1.0557859098331e-24
5.6810589365354e-25
2.9915831396111e-25
1.5418896813934e-25
7.7792589091621e-26
3.8423713545372e-26
1.8581140490952e-26
8.7980465732377e-27
4.0790969799958e-27
3.2935049466232e-27
0
0
0
0
2.796140921538e-59
5.0315952399064e-48
-7.5547229206715e-47
-1.921023083487e-44
-8.682379528843e-43
-2.3048479009184e-41
-4.3836004938613e-40
-6.5128015526081e-39
-7.9408052411938e-38
-8.2050273381996e-37
-7.3498932492494e-36
-5.8053702615834e-35
-4.096739052893e-34
-2.6101712869157e-33
-1.5144389867303e-32
-8.0592046495094e-32
-3.9574520299179e-31
-1.8024790233071e-30
-7.6489475984762e-30
-3.03605829254e-29
-1.1310788742173e-28
-3.9671476272893e-28
-1.3135669684756e-27
-4.1160315622293e-27
-1.2232568689011e-26
-3.4549246963675e-26
-9.2903490745177e-26
-2.3824249232742e-25
-5.8352574202895e-25
-1.3669720336284e-24
-3.0667210537783e-24
-6.5965365165549e-24
-1.3619355870681e-23
-2.7016628253421e-23
-5.1539577469637e-23
-9.4635751182541e-23
-1.6738406526954e-22
-2.8538362609923e-22
-4.6933659874635e-22
-7.4496874588672e-22
-1.1418826853293e-21
-1.690984992992e-21
-2.4203076514399e-21
-3.3493680100791e-21
-4.4826446756979e-21
-5.8032016242927e-21
-7.2678389358509e-21
-8.8052449084506e-21
-1.0318365965251e-20
-1.1691575652515e-20
-1.2802300960199e-20
-1.3535746752291e-20
-1.3800501208036e-20
-1.3542349526196e-20
-1.2753725545374e-20
-1.1476907407535e-20
-9.8001791877961e-21
-7.8474850471584e-21
-5.7632985918812e-21
-3.6952533536742e-21
-1.7773654949245e-21
-1.1639617227819e-22
1.2168506197262e-21
2.1905212766764e-21
2.8092787967659e-21
3.1075935587814e-21
3.1404431088382e-21
2.9732443290261e-21
2.6726233877315e-21
2.2991621548738e-21
1.9026863855042e-21
1.5201174422688e-21
1.175495783801e-21
8.8154931992207e-22
6.4212088227637e-22
4.5484738916217e-22
3.1364208162466e-22
2.10714402965e-22
1.3802684394798e-22
8.8210056758234e-23
5.5029918024864e-23
3.3528760808163e-23
1.9959983378506e-23
1.1614229834729e-23
6.6077152608502e-24
3.6767773007024e-24
2.0014546368169e-24
1.0660515397835e-24
5.5570194796935e-25
2.8353136521498e-25
1.416146751659e-25
6.924771593269e-26
3.3153213959405e-26
1.55415331793e-26
7.1339232683794e-27
5.6596950701183e-27
0
0
0
0
1.3627708808063e-58
1.9197193217631e-47
-8.1078771681627e-47
-5.7454417902086e-44
-2.7114117036967e-42
-7.2830011013636e-41
-1.3897024626341e-39
-2.0642264101822e-38
-2.5117502583477e-37
-2.5874116310942e-36
-2.3091768865383e-35
-1.8163808417388e-34
-1.2760933765962e-33
-8.0924992614727e-33
-4.6726314361141e-32
-2.474239108704e-31
-1.2088185440091e-30
-5.477439051905e-30
-2.3123019650609e-29
-9.1299526919959e-29
-3.3833915318988e-28
-1.1803982404172e-27
-3.8876467279485e-27
-1.2116970891348e-26
-3.581889690099e-26
-1.0062634872037e-25
-2.6914305880665e-25
-6.8650995475093e-25
-1.6724784199774e-24
-3.8969645503513e-24
-8.695548568921e-24
-1.8602850800842e-23
-3.819800159308e-23
-7.5354618195357e-23
-1.4294947369944e-22
-2.6098920882608e-22
-4.5894891276458e-22
-7.7788409858662e-22
-1.271613227046e-21
-2.0060446865362e-21
-3.0556467036689e-21
-4.4962475143535e-21
-6.3938901770242e-21
-8.7903516809997e-21
-1.168704477552e-20
-1.5030097038355e-20
-1.8700102348777e-20
-2.2510031905169e-20
-2.621387446274e-20
-2.9526785711194e-20
-3.215517993528e-20
-3.383283223897e-20
-3.4357296471292e-20
-3.3620296376468e-20
-3.1626458492163e-20
-2.8496715101505e-20
-2.4455480307172e-20
-1.9803660427764e-20
-1.4882047622245e-20
-1.0031153205041e-20
-5.553809391396e-21
-1.6859388830401e-21
1.4209540074292e-21
3.7043302146806e-21
5.1832407347849e-21
5.9418766129498e-21
6.1079329562967e-21
5.8298555974222e-21
5.2564558691553e-21
4.5212795239049e-21
3.7328160745603e-21
2.9704343832193e-21
2.2850445626627e-21
1.7030125667701e-21
1.2317755954241e-21
8.6582574847927e-22
5.9211260906117e-22
3.9433530087113e-22
2.5595782251905e-22
1.6203917347908e-22
1.0011287314801e-22
6.0396986178485e-23
3.5596302321682e-23
2.050416862329e-23
1.1547478452181e-23
6.3603106778754e-24
3.4271573724907e-24
1.8069829827514e-24
9.3244016664914e-25
4.7097922651427e-25
2.328891903246e-25
1.1274679977436e-25
5.3443654992045e-26
2.4805365717244e-26
1.1273674724206e-26
8.7903298837205e-27
0
0
0
0
5.8719009972617e-58
6.631216245406e-47
3.1255434852745e-46
-1.5328741796645e-43
-7.6567275155716e-42
-2.0877065091203e-40
-4.0020741617232e-39
-5.9473749181074e-38
-7.225196968349e-37
-7.4221528818882e-36
-6.6007178500689e-35
-5.1712553716848e-34
-3.6172335794567e-33
-2.2833530008421e-32
-1.3121019119749e-31
-6.9135786289671e-31
-3.3607205218831e-30
-1.5150464283765e-29
-6.3627852737415e-29
-2.499260436944e-28
-9.2135921950225e-28
-3.19770898351e-27
-1.0476978503467e-26
-3.2485643405773e-26
-9.5536582101665e-26
-2.6701913091956e-25
-7.1055821306392e-25
-1.8032657789718e-24
-4.3709605262438e-24
-1.0133240924854e-23
-2.2496784344782e-23
-4.7884344391808e-23
-9.781981142412e-23
-1.9197386823125e-22
-3.6226589176228e-22
-6.5786996279008e-22
-1.1505596006685e-21
-1.9392692032144e-21
-3.1521495918395e-21
-4.9439397846919e-21
-7.4864240036578e-21
-1.0950348376844e-20
-1.5478584658268e-20
-2.1152474953932e-20
-2.795580410269e-20
-3.5743085274822e-20
-4.4220038688837e-20
-5.2943627486352e-20
-6.1346488226276e-20
-6.8786306164755e-20
-7.4615463262072e-20
-7.8261360803872e-20
-7.930449406902e-20
-7.7540622034124e-20
-7.3015583193203e-20
-6.6026045406136e-20
-5.7085672336628e-20