/*--------------------------------*- C++ -*----------------------------------*\
  =========                 |
  \\      /  F ield         | OpenFOAM: The Open Source CFD Toolbox
   \\    /   O peration     | Website:  https://openfoam.org
    \\  /    A nd           | Version:  7
     \\/     M anipulation  |
\*---------------------------------------------------------------------------*/
FoamFile
{
    version     2.0;
    format      ascii;
    class       surfaceScalarField;
    location    "3.1";
    object      alphaPhi0.water;
}
// * * * * * * * * * * * * * * * * * * * * * * * * * * * * * * * * * * * * * //

dimensions      [0 3 -1 0 0 0 0];

internalField   nonuniform List<scalar> 
11840
(
0
0
0
0
0
0
0
0
0
0
0
0
0
0
0
0
0
0
0
0
0
0
0
0
0
0
0
0
0
0
0
0
0
0
0
0
0
0
0
0
0
0
0
0
0
0
0
0
0
0
0
0
0
0
0
0
0
0
0
0
0
0
0
0
0
0
0
0
0
0
0
0
0
0
0
0
0
0
0
0
0
0
0
0
0
0
0
0
0
0
0
0
0
0
0
0
0
0
0
0
0
0
0
0
0
0
0
0
0
0
0
0
0
0
0
0
0
0
0
0
0
0
0
0
0
0
0
0
0
0
0
0
0
0
0
0
0
0
0
0
0
0
0
0
0
0
0
0
0
0
0
0
0
0
0
0
0
0
0
0
0
0
0
0
0
0
0
0
0
0
0
0
0
0
0
0
0
0
0
0
0
0
0
0
0
0
0
0
0
0
0
0
0
0
0
0
0
0
0
0
0
0
0
0
0
0
0
0
0
0
0
0
0
0
0
0
0
0
0
0
0
0
0
0
0
0
0
0
0
0
0
0
0
0
0
0
0
3.7587620405386e-211
1.4849938014102e-211
7.6439048759014e-211
3.8219524379507e-211
1.3163279381733e-210
6.5816396906929e-211
1.6677938879216e-210
8.7433323158405e-211
3.0323525234939e-211
1.3645586355722e-210
7.6256675870666e-192
0
2.7657499286541e-191
8.253607597348e-192
5.0286362339165e-192
2.2628863052624e-191
9.1429749707572e-193
4.1143387368408e-192
3.6218799636154e-192
-7.3361649148845e-193
7.5698117599749e-192
0
2.7444960320158e-191
0
4.9899927854833e-192
2.2454967534675e-191
6.1484672083116e-192
3.0742336041558e-192
2.0933332604001e-191
0
6.45952241444e-191
0
1.7196844572881e-190
0
3.1266990132511e-191
1.407014555963e-190
5.6849072968201e-192
2.5582082835691e-191
1.3696208478717e-191
0
2.9262524797448e-191
0
5.3204590540814e-192
2.3942065743367e-191
1.0379631214463e-191
0
1.8872056753569e-192
8.4924255391063e-192
1.7380451608471e-192
8.6902258042354e-193
3.160082110631e-193
1.422036949784e-192
4.0539366944969e-193
5.5824980147909e-194
6.1800239804311e-193
0
1.1236407237147e-193
5.0563832567164e-193
1.6232266951306e-193
0
2.9513212638738e-194
1.3280945687432e-193
3.4459234475934e-194
6.6516981982992e-195
4.640380741985e-194
0
8.4370558945181e-195
3.7966751525332e-194
1.0431789821275e-194
0
1.8966890584136e-195
8.5351007628615e-195
3.448525560752e-196
1.5518365023384e-195
3.9692463368657e-196
0
7.216811521574e-197
3.2475651847083e-196
7.7927881275122e-197
0
1.4168705686391e-197
6.3759175588735e-197
1.4441538424974e-197
0
2.6257342591733e-198
1.1815804165803e-197
1.7380062174662e-198
8.6900310873308e-199
3.1600113047221e-199
1.4220050870228e-198
2.0570621947555e-199
1.0285310973777e-199
1.3184341515533e-199
6.5921707577663e-200
2.3971531627445e-200
1.0787188785846e-199
1.513377874978e-200
7.5668893748897e-201
1.3283731784031e-200
0
8.049299319587e-201
4.0246496597935e-201
6.5972123946197e-201
0
1.1995327249334e-201
5.3977046023913e-201
9.427262047332e-202
0
1.714143754511e-202
7.7131608055399e-202
9.6709081811484e-203
4.8354540905742e-203
1.7597658860124e-203
7.9116412195642e-203
1.2996939644324e-203
0
9.3025314289053e-204
0
3.8775781424268e-204
5.698864845688e-204
2.7942903149217e-204
0
1.1777860801503e-204
1.5461375036236e-204
8.7880142705752e-205
0
4.7470724432018e-205
2.3735362216009e-205
3.2523531672666e-205
0
2.1543818176203e-205
0
1.0864553601822e-205
5.5051634951417e-206
6.902009325724e-206
0
3.3988987515378e-206
1.6994493757689e-206
2.0895161569029e-206
0
1.0070832140936e-206
5.0358371187623e-207
4.8135602836316e-207
2.4067801418158e-207
2.8423890640158e-207
0
1.3320564274436e-207
6.6602821372181e-208
7.6515040986622e-208
0
3.5151798834506e-208
1.7575901135326e-208
1.963504819459e-208
0
1.0789557374597e-208
0
4.7992810248604e-209
2.3996405124302e-209
2.5638277842068e-209
0
9.7886380908611e-210
0
0
0
0
0
0
0
0
0
0
0
0
0
0
0
0
0
0
0
0
0
0
0
0
0
0
0
0
0
0
0
0
0
0
0
0
0
0
5.6955618128639e-156
2.8477809064319e-156
3.1278997260809e-152
1.5639498630405e-152
2.8435452055471e-152
2.843545205581e-153
8.3973451344589e-142
4.3139699696934e-142
1.7950222480584e-125
0
1.7542373503813e-125
8.7536977658046e-126
1.7477762158779e-125
0
3.706849625639e-125
1.9315071204137e-125
1.4989174167108e-125
4.1585820305848e-125
1.272974461627e-125
2.2458987806681e-126
3.0132606762706e-125
1.1723898914564e-126
3.9625351344878e-125
1.734828111649e-125
4.2477846883783e-125
2.1299810945585e-125
2.8268854470367e-126
1.4556927831969e-125
1.6866417026585e-126
1.0119734185007e-126
2.5542214149767e-126
1.051302662322e-126
6.4931824567684e-126
0
2.4295259971032e-124
0
1.2434391641544e-125
2.1959470864687e-124
2.215363480172e-125
4.7706903692435e-126
9.1285077974947e-124
0
9.1285077974947e-124
0
2.7525830519751e-122
0
2.7527914572126e-122
0
5.0461710856517e-124
2.7023297463561e-122
5.0859667243123e-124
0
5.0859667243123e-124
0
7.1330233423177e-124
0
9.9693906368072e-124
0
1.3047131538749e-123
0
1.3694715826883e-123
0
1.3694715826883e-123
0
1.2606084506529e-123
0
8.6778644166045e-124
0
6.0334937173053e-124
0
4.021119474656e-124
0
5.7536342399769e-125
3.4457560506583e-124
3.9650056562036e-125
0
1.2343357657923e-126
3.8415720796243e-125
1.2340401096006e-126
0
3.1835300110455e-128
1.2022048094901e-126
3.1825523100942e-128
0
2.158490600687e-128
0
7.8472443900855e-130
2.0800181567861e-128
7.3468150926369e-130
0
1.3357845622976e-130
6.0110305303393e-130
1.8791311950695e-131
1.1478714427907e-130
1.2563267278831e-131
0
3.9110975770529e-133
1.2172157521126e-131
3.9100680929046e-133
0
7.6794302465599e-135
3.833273790439e-133
5.595612322582e-135
0
5.595612322582e-135
0
9.9568148220122e-136
0
9.9539632338522e-136
0
1.809811497064e-136
8.1441517367882e-136
6.756513903886e-138
1.7422463580252e-136
1.9267075973767e-138
0
1.9261299943517e-138
0
7.4999538522204e-140
1.8511304558295e-138
6.9340318593607e-140
0
9.4635642000168e-141
5.987675439359e-140
5.9716837136936e-141
0
1.4629778330017e-142
5.8253859303934e-141
1.4624006293493e-142
0
8.5881283631041e-143
0
4.0946564878192e-143
0
2.4458882005558e-143
0
6.0570196131524e-145
2.3853180044243e-143
6.0543294097391e-145
0
3.5757833100437e-145
0
4.7957243829031e-146
3.0962108717534e-145
2.919816442519e-146
0
8.5178427228057e-148
2.8346380152909e-146
5.7926685042245e-148
0
2.9265953535514e-148
0
1.3336676032683e-148
0
8.0104751292723e-149
0
2.3484187412951e-150
7.7756332551428e-149
2.0113150166245e-150
0
0
0
0
0
0
0
0
0
0
0
0
0
0
0
0
0
0
0
0
0
0
0
0
0
0
0
0
0
0
0
0
0
0
0
0
-5.9082158016849e-94
-2.9541079008424e-94
-1.2367260489791e-92
-6.1836302448954e-93
-1.6091391699808e-91
-8.0456958499042e-92
-1.4918735906402e-90
-7.4593679532011e-91
-1.0195186833676e-89
-5.097593416838e-90
-5.5349511697726e-89
-2.7674755848863e-89
1.3060040641802e-75
8.8434366004167e-76
5.3949809587315e-77
1.2520542545929e-75
8.994888168168e-77
0
1.5758621945508e-77
7.400958225132e-77
2.8489245054685e-78
1.2895064947377e-77
1.4216402059044e-79
2.7067604848781e-78
9.4785737693425e-80
4.7378282133206e-80
1.6853140498024e-80
7.7504765740621e-80
3.0642075756989e-81
1.3788932922325e-80
5.5712866392354e-82
2.5070789117755e-81
7.0970409833231e-83
4.8615825409011e-82
3.0325710880291e-83
4.0644698952939e-83
2.12629801296e-68
1.2611300912337e-68
2.2520335031449e-66
1.5192908393216e-66
2.5153720322331e-67
2.0004962999216e-66
3.752264063198e-68
2.1401456259133e-67
1.9671282190024e-67
1.7507453031245e-67
5.1400595641063e-67
3.9228349098663e-67
6.3738373083721e-67
6.6622872625945e-67
4.7593366864411e-67
5.7492695160742e-67
1.5929285048711e-67
2.8148167465696e-67
8.6407215705486e-68
9.0504630076773e-68
1.292190604007e-67
1.1795199774869e-67
7.1943023192685e-67
4.4562054956282e-67
3.1233702859047e-66
2.1800801194319e-66
1.387533241664e-65
8.8519277484618e-66
4.2282441563711e-65
4.9376952277951e-65
1.7453437881205e-64
1.2685952358469e-64
7.5712602718137e-64
5.5452071334251e-64
1.9233400274175e-63
1.4738545476581e-63
4.9166923771198e-63
5.5423729818451e-63
1.5711871064386e-62
1.1964375233586e-62
3.7585513413448e-62
2.8848294457038e-62
1.0415031603455e-61
7.3822341882635e-62
2.1558639877532e-61
1.7021678776507e-61
5.3341228190841e-61
3.8416712198543e-61
1.0857201997813e-60
8.851692153744e-61
2.109296334459e-60
1.7044680833287e-60
4.9118253463461e-60
3.6498102349696e-60
9.0450680286978e-60
7.4262838896468e-60
1.8416437806208e-59
1.4051615334298e-59
3.063981061241e-59
2.693723658752e-59
4.3012774522304e-59
3.8771709346637e-59
5.6544516092985e-59
5.4008923792649e-59
5.9145130338755e-59
6.0675225724293e-59
6.2710894794009e-59
6.2710221023545e-59
6.0642251290519e-59
6.5372839437281e-59
5.7430525518096e-59
6.2156596482565e-59
5.5880894477163e-59
5.6986022642506e-59
4.6330868636354e-59
5.3115313758515e-59
3.5910234390439e-59
4.12410700673e-59
2.1289076131467e-59
2.9702701496346e-59
8.8286175728782e-60
1.536744195051e-59
2.4790885070118e-60
5.3563065800224e-60
3.6551243373444e-61
1.4542164486154e-60
6.7830587712657e-62
2.7898461328208e-61
1.2981969804068e-62
5.3361486949999e-62
2.423998009513e-63
1.0279331664642e-62
3.9946213420266e-64
1.9728931866809e-63
1.0447049509343e-64
2.6388029764392e-64
2.4971830791413e-65
6.7788381876743e-65
4.2513329318385e-66
1.9789254026977e-65
9.8744598493203e-67
2.8438884242821e-66
2.0127778672971e-67
7.5600457291491e-67
3.2927270631688e-68
1.6381541885783e-67
8.5513569008026e-69
2.1787482139557e-68
2.0428000671466e-69
5.550479502989e-69
3.7868982828752e-70
1.6025591959023e-69
6.1881429941968e-71
3.0814072338091e-70
1.592093997579e-71
4.1043369640389e-71
4.0767369183341e-72
1.0148163728108e-71
1.0310182749422e-72
2.5583442008103e-72
2.5854003975498e-73
6.4405176978158e-73
6.4691877468972e-74
1.6123330508129e-73
1.5787470461253e-74
4.0562529192939e-74
4.6321578698606e-75
9.3826033985219e-75
3.7536458912076e-75
0
0
0
0
0
0
0
0
0
0
0
0
0
0
0
0
0
0
5.4542054058528e-77
2.7419835162425e-77
5.1266326576907e-75
2.634376856046e-75
1.8948392035974e-73
9.7786300209108e-74
5.1185327332373e-72
2.6721328031819e-72
9.8335525965036e-71
5.2624815046832e-71
1.4490287435741e-69
7.7516612914757e-70
2.7624052123673e-68
1.4674546833657e-68
4.0480479762715e-67
2.1935317873628e-67
5.56865252202e-66
3.0170682829692e-66
5.7953133858038e-65
3.2528254259068e-65
4.6626346540918e-64
2.561904177806e-64
6.5026358083846e-63
3.5991999983528e-63
4.8755172464154e-62
2.8301349754882e-62
2.9169087837548e-61
1.6845896826397e-61
1.8138116107105e-60
1.0458555051355e-60
1.4096222576381e-59
8.4041821327515e-60
3.5501563506209e-59
3.5969028306037e-59
2.5133528587452e-59
3.0467882800408e-59
5.0423408280512e-60
2.0091187759401e-59
9.1655965395327e-61
4.125781174098e-60
4.5666789612519e-61
4.5989175782808e-61
2.4557871604494e-57
1.2234945877497e-57
4.6147876071064e-58
1.9943083997387e-57
1.3418861609798e-58
3.2729014461266e-58
3.8403019402451e-56
0
2.5863320968168e-56
1.2539698434283e-56
2.5458347473202e-53
8.3523897190381e-54
8.6024765665566e-52
5.913491921079e-52
1.3738720326187e-51
1.2896089726195e-51
2.6033962455066e-51
2.405488239083e-51
2.0851118176976e-52
2.0313011796701e-51
1.1261286625104e-52
1.4150169549509e-52
2.2548551613237e-53
4.8435618094316e-53
4.1247735393457e-54
1.8472833313373e-53
3.7498128085987e-55
3.7497922584861e-54
5.4776674654685e-54
0
9.3736006460845e-55
2.431258964958e-54
1.7042807754033e-55
0
3.0987808364304e-56
1.3944026917953e-55
1.6682111017266e-54
0
4.7652179402975e-51
0
4.6805002684117e-51
6.4876927267851e-53
8.5129932492536e-52
1.9135830640569e-51
4.1821343367764e-52
4.3308589125011e-52
5.0578143890378e-49
1.751623080406e-48
4.9483045584194e-49
0
9.0111791634608e-50
4.0471866420742e-49
1.057562303725e-49
0
1.9232591010651e-50
8.6523639362328e-50
2.2360630665636e-50
0
1.5005281622611e-51
2.0860102505814e-50
1.5005281664236e-51
0
1.7790138039013e-51
0
3.2345769857253e-52
1.4555561252402e-51
3.7553109693092e-52
0
6.8278565037116e-53
3.0725260065326e-52
1.2414324033244e-53
5.5864331162454e-53
1.4333541874724e-53
0
2.6061589360747e-54
1.1727511320374e-53
2.9610971558751e-54
0
4.6296431188277e-55
2.4982659892173e-54
4.6308952035128e-55
0
6.55244164424e-55
0
6.5537939395953e-55
0
6.7623423326657e-55
0
1.1573478945456e-55
5.6054018843677e-55
2.1059971210521e-56
9.4693927393972e-56
1.6408511056337e-56
0
1.6409387521565e-56
0
5.4268542805604e-58
1.5866915405297e-56
5.4271927912783e-58
0
5.842892165767e-59
4.8429866395057e-58
5.8430517520866e-59
0
5.3579115798746e-59
0
4.5564497266437e-59
0
4.5564512943775e-59
0
1.7939734958453e-59
0
1.7831534825068e-59
0
3.7313236205881e-61
1.7458402594399e-59
3.2515076954147e-61
0
2.7458636555723e-61
0
1.5925309086964e-62
2.5866105774536e-61
1.5925309333612e-62
0
1.0281291471789e-62
0
6.6776057234532e-63
0
4.0438740227407e-63
0
1.1443627375922e-63
2.3336307291979e-63
7.597991554871e-64
3.8893845486632e-64
2.9526850752921e-64
3.4032114800804e-64
1.6250710218798e-64
8.5080287002008e-65
1.0331177707387e-64
0
0
0
0
0
0
0
0
0
0
0
0
0
0
1.142581563634e-67
5.7180705826956e-68
1.5880856523902e-65
7.9943151630541e-66
1.0851704271016e-63
5.4989327608742e-64
4.8660344180746e-62
2.4832770539754e-62
1.6136360813048e-60
8.2955982125452e-61
4.2292291414415e-59
2.1906879709571e-59
9.1325016332801e-58
4.7673151578535e-58
1.6691132432398e-56
8.7832566471338e-57
2.6284441213163e-55
1.3947951716155e-55
3.6132858067777e-54
1.9342271315439e-54
4.3877674951555e-53
2.369804312801e-53
4.7691955308911e-52
2.5982505330687e-52
4.7128907799945e-51
2.5880908196239e-51
4.3084665934555e-50
2.3822453151123e-50
3.705139668073e-49
2.0602527341984e-49
3.0355663180099e-48
1.6960244814227e-48
2.3844171696988e-47
1.3382521579784e-47
1.7958932047308e-46
1.0128668291278e-46
1.2918732080547e-45
7.3272822521029e-46
8.8283058673214e-45
5.0404003088079e-45
5.7034989796562e-44
3.2810123806947e-44
3.4711380595209e-43
2.0136858278934e-43
1.9858123170491e-42
1.1626092030337e-42
1.0668631987396e-41
6.3074468876871e-42
5.3815489815812e-41
3.214665337906e-41
2.5496878007887e-40
1.5395884815493e-40
1.1353663372343e-39
6.9331242513103e-40
4.7556836900478e-39
2.9380235413072e-39
1.8754496240052e-38
1.1726389407266e-38
6.9695463224852e-38
4.4120889917112e-38
2.4428160897607e-37
1.5663004858239e-37
8.082151590335e-37
5.2507401347713e-37
2.5261320066158e-36
1.6635089338638e-36
7.4645192976179e-36
4.9844196117332e-36
2.0867601941277e-35
1.4135081783729e-35
5.5228723922435e-35
3.796413911611e-35
1.3847456151085e-34
9.6634039128143e-35
3.2913733840382e-34
2.3326806859433e-34
7.421280883719e-34
5.3436476416384e-34
1.5884367587307e-33
1.1624355395079e-33
3.2295321569149e-33
2.4029063987639e-33
6.2409642363549e-33
4.7229420093763e-33
1.1468426089692e-32
8.8311514496694e-33
2.0043192192981e-32
1.5713397637276e-32
3.3305379797961e-32
2.6602742568908e-32
5.2568236275125e-32
4.2825269945382e-32
7.8647651651296e-32
6.5452897193985e-32
1.11051909327e-31
9.4687984812564e-32
1.4649631603815e-31
1.2881039157156e-31
1.7636472315838e-31
1.6219153232876e-31
1.8946842724519e-31
1.8403482735324e-31
1.9059964372104e-31
1.8956479655625e-31
1.8872759984194e-31
1.8852418698609e-31
1.8038489265402e-31
1.832130543064e-31
1.6224328768193e-31
1.6982379331098e-31
1.3454858255942e-31
1.4695360657108e-31
1.0059670325733e-31
1.1621910067079e-31
6.623649015079e-32
8.2220201342518e-32
3.7429204754454e-32
5.0841723303612e-32
1.773170865097e-32
2.6851014855992e-32
6.9805415197861e-33
1.192021247359e-32
2.3352050769253e-33
4.4664066516965e-33
7.0209539992334e-34
1.4606452612284e-33
2.0223911947298e-34
4.4008140843201e-34
5.8143169808553e-35
1.2837520476597e-34
1.6902461616314e-35
3.7303488421e-35
4.9616180654648e-36
1.090154160328e-35
1.4649542868155e-36
3.2055411543957e-36
4.3421041049528e-37
9.4700600697422e-37
1.2918653874292e-37
2.8089264666031e-37
3.8600304874721e-38
8.3661388249812e-38
1.1583737548235e-38
2.5026814581464e-38
3.4887188670392e-39
7.5172432452349e-39
1.052944878024e-39
2.26493587952e-39
3.1788108824197e-40
6.8348190694162e-40
9.5815720107218e-41
2.0620260971387e-40
2.8789508827893e-41
6.208834527587e-41
8.612808297792e-42
1.8631723903203e-41
2.5634687013949e-42
5.5662590507911e-42
7.5871427987938e-43
1.65437199836e-42
2.2324428251997e-43
4.8895804093951e-43
6.5294404549241e-44
1.436709383202e-43
1.8982084286988e-44
4.1963257537579e-44
5.4851679954593e-45
1.21829781695e-44
1.5755812714846e-45
3.5158481862427e-45
4.499246087081e-46
1.0086205249059e-45
1.2774288972393e-46
2.8766856713135e-46
3.6068040629028e-47
8.157610311189e-47
1.0123401426349e-47
2.3010099996272e-47
2.8369880272915e-48
6.4431156926774e-48
7.6780929364001e-49
1.8212291499188e-48
2.5789981641813e-49
4.5316482638302e-49
2.2253539426663e-49
0
0
0
0
0
0
0
0
0
0
0
0
1.0214851737154e-67
5.0998202165742e-68
2.1299477374393e-65
1.0632468084034e-65
1.9696540275173e-63
9.8614181872216e-64
1.1304491864879e-61
5.6858223848599e-62
4.624531900416e-60
2.3390763429822e-60
1.45557804164e-58
7.4086021804589e-59
3.7015775318912e-57
1.8967727658128e-57
7.8600394183513e-56
4.0565100371319e-56
1.4251989395922e-54
7.4109153662949e-55
2.2427600908762e-53
1.1754795019757e-53
3.1024511020724e-52
1.6395836797672e-52
3.8120253538359e-51
2.0320302704532e-51
4.1963961580203e-50
2.2568471640511e-50
4.1757009261765e-49
2.2655482959364e-49
3.7998392777051e-48
2.0785166819118e-48
3.2094031310894e-47
1.7678577524307e-47
2.5549793081769e-46
1.4153612192398e-46
1.9401682419089e-45
1.0798407710566e-45
1.4139855835116e-44
7.9046214088034e-45
9.8977706361259e-44
5.5594469233648e-44
6.6370235364851e-43
3.7482785183727e-43
4.2459036288436e-42
2.4130825917189e-42
2.5803012841076e-41
1.4771219365994e-41
1.4840853200057e-40
8.5653124958126e-41
8.0556618532483e-40
4.6913454564708e-40
4.1187482884561e-39
2.4222376298022e-39
1.9814036124364e-38
1.1775781259435e-38
8.9644560957678e-38
5.3874517423802e-38
3.8143176233847e-37
2.3193570340105e-37
1.5268026895112e-36
9.3983145375828e-37
5.7522351507698e-36
3.5861328516837e-36
2.040999825233e-35
1.2892797299224e-35
6.8249330977445e-35
4.3701538409365e-35
2.1523981770244e-34
1.3976025135396e-34
6.4070448450903e-34
4.2202539968584e-34
1.8016556393204e-33
1.204249780918e-33
4.7902910095674e-33
3.2501312745791e-33
1.205462598847e-32
8.3043146776069e-33
2.8740344398725e-32
2.010760576787e-32
6.4985917328957e-32
4.6186204670243e-32
1.3949047073251e-31
1.0073505440176e-31
2.8445127040232e-31
2.0880114171483e-31
5.5138107433375e-31
4.1157850916953e-31
1.0162571233875e-30
7.7182359402045e-31
1.7809856147878e-30
1.3771601725013e-30
2.9666126878406e-30
2.3375552453054e-30
4.6925518299963e-30
3.7719264783021e-30
7.0357161888333e-30
5.7780742837225e-30
9.9623577290519e-30
8.3809250347307e-30
1.3203799800467e-29
1.1445123283907e-29
1.6033107816848e-29
1.4507595394163e-29
1.7407279110337e-29
1.6634526293798e-29
1.7554327475698e-29
1.7263940695805e-29
1.7441903043654e-29
1.7202685286625e-29
1.6769307584991e-29
1.6794410730805e-29
1.5224934694248e-29
1.5687767969565e-29
1.2793647982107e-29
1.3727909634787e-29
9.7345909864219e-30
1.1021494328743e-29
6.5595199565903e-30
7.9528781967563e-30
3.8202804225488e-30
5.0457152800049e-30
1.8800949714621e-30
2.7534188738075e-30
7.7363317725424e-31
1.2715780067679e-30
2.705783443272e-31
4.9738575348904e-31
8.4435082553814e-32
1.693790474826e-31
2.4984643979497e-32
5.2737785280192e-32
7.324865371759e-33
1.5769615939144e-32
2.1654001151506e-33
4.6731849237838e-33
6.4649378174444e-34
1.3901539955499e-33
1.943870580137e-34
4.1615425006798e-34
5.8757341296903e-35
1.2529225752109e-34
1.7850009841202e-35
3.7919073341287e-35
5.4512207799518e-36
1.1536464612479e-35
1.6730245323582e-36
3.5282423962488e-36
5.1539660194399e-37
1.0839966360835e-36
1.5905575480423e-37
3.3407680055427e-37
4.9057861711527e-38
1.030675401268e-37
1.5088691130267e-38
3.1760103973091e-38
4.6196186552457e-39
9.7553821158563e-39
1.406208745429e-39
2.9821257251901e-39
4.2528918837403e-40
9.0629656030173e-40
1.2775280948632e-40
2.7366178009118e-40
3.8112023037563e-41
8.2078474306519e-41
1.1291750009052e-41
2.4449470906575e-41
3.3227434121626e-42
7.2332762189257e-42
9.7121471802656e-43
2.1254677650269e-42
2.8201850088756e-43
6.2040597601716e-43
8.1368530543392e-44
1.7991267082171e-43
2.3330669154864e-44
5.1842592833829e-44
6.6497149662179e-45
1.4846167244266e-44
1.8833369114271e-45
4.2271542586696e-45
5.3242051146328e-46
1.1943243995996e-45
1.4526115575987e-46
3.4061608641678e-46
4.9285165764844e-47
8.5294107447195e-47
4.2475950115892e-47
0
0
0
0
0
0
0
0
0
0
4.7113748778558e-68
2.3432185663307e-68
1.3148799732183e-65
6.5238183596576e-66
1.5803382902446e-63
7.8405741728117e-64
1.1358448503229e-61
5.6465413299738e-62
5.6612039741565e-60
2.8240268658754e-60
2.1254350979208e-58
1.0650518071321e-58
6.3367050960381e-57
3.1922393716882e-57
1.5566912393364e-55
7.8887846151375e-56
3.2347031486194e-54
1.6498520925811e-54
5.7929642746234e-53
2.9752496108357e-53
9.0708264607039e-52
4.6932821618715e-52
1.2562280034839e-50
6.5507866835848e-51
1.5524248319736e-49
8.1622423889865e-50
1.7250404527002e-48
9.1480435484849e-49
1.735622471897e-47
9.2861224742723e-48
1.5917398541411e-46
8.5924932879116e-47
1.3415169005288e-45
7.3027581204139e-46
1.0523047482804e-44
5.7689999192513e-45
7.8120311124907e-44
4.305439030874e-44
5.5679089124678e-43
3.0809796436611e-43
3.8310714298611e-42
2.1284308508826e-42
2.5369120394415e-41
1.4167034174226e-41
1.6065683388799e-40
9.031801464753e-41
9.6795475072036e-40
5.4854787976271e-40
5.532106621168e-39
3.163416883071e-39
2.9946754353328e-38
1.7291148481616e-38
1.5339093622355e-37
8.9480036561298e-38
7.4271471918366e-37
4.3795569659282e-37
3.3960233292651e-36
2.025321274306e-36
1.4648769137816e-35
8.8405940164052e-36
5.9553773803747e-35
3.6391138306037e-35
2.2801118674519e-34
1.4115678785751e-34
8.2163472978782e-34
5.1563001682237e-34
2.7854397471949e-33
1.7730439555371e-33
8.8817777926285e-33
5.7377024464842e-33
2.663700136569e-32
1.7473047556565e-32
7.515245786106e-32
5.0081931574063e-32
1.9957149546461e-31
1.3516429817597e-31
4.9928283014579e-31
3.4375475126665e-31
1.1784160032339e-30
8.2484276107197e-31
2.6291828699821e-30
1.8706538193537e-30
5.5595789897293e-30
4.0191470030764e-30
1.117611832486e-29
8.2041186180733e-30
2.1425560230256e-29
1.5959759994345e-29
3.9273387897207e-29
2.9671137558608e-29
6.8926936991201e-29
5.2816598115272e-29
1.157840951201e-28
9.0054780540164e-29
1.8574456030038e-28
1.4687735740958e-28
2.8349082696848e-28
2.284668662634e-28
4.0941375925226e-28
3.3744409138269e-28
5.5434305021857e-28
4.7006132977032e-28
6.901401304022e-28
6.0942091304829e-28
7.68359455543e-28
7.1720930471623e-28
7.8164286779407e-28
7.578927217075e-28
7.7977535772327e-28
7.5906176873659e-28
7.5475490439345e-28
7.446730798316e-28
6.9477082045682e-28
7.0315581859916e-28
5.9296902991285e-28
6.2391287972649e-28
4.601080811039e-28
5.0971294157259e-28
3.1760715529495e-28
3.7573052759929e-28
1.9060022614555e-28
2.4471192639501e-28
9.7307337255961e-29
1.3789362625206e-28
4.1769418339686e-29
6.6147196863319e-29
1.525269309802e-29
2.6967765525006e-29
4.940797717148e-30
9.5561724779547e-30
1.5036709432385e-30
3.076261096284e-30
4.501021724197e-31
9.4389295890574e-31
1.3542069495966e-31
2.8552809368058e-31
4.1139378081003e-32
8.6514940549944e-32
1.2601095780596e-32
2.6378639032375e-32
3.8859994089011e-33
8.0969076851323e-33
1.2061320370647e-33
2.5016226729812e-33
3.7676037097354e-34
7.7796598238144e-34
1.1836099703913e-34
2.4344951350214e-34
3.7330631774626e-35
7.6575132390249e-35
1.1789795231644e-35
2.4161062117594e-35
3.7176383163258e-36
7.6268090903966e-36
1.1673529040899e-36
2.4020041626771e-36
3.6429671629863e-37
7.5297628782284e-37
1.1285155621923e-37
2.3454494158323e-37
3.4683494694985e-38
7.2521997414441e-38
1.057420373172e-38
2.2249115959266e-38
3.198304604626e-39
6.7718426577154e-39
9.5986826878992e-40
2.0449478433079e-39
2.8589491119956e-40
6.1277873599238e-40
8.4526632961345e-41
1.8224325104382e-40
2.4812397751938e-41
5.3804077045781e-41
7.2332540136398e-42
1.5772168135151e-41
2.0945402575925e-42
4.5918085479594e-42
6.0265534759467e-43
1.3279443107323e-42
1.7223953800846e-43
3.8168679719429e-43
4.9122095044255e-44
1.0881686747975e-43
1.351103842976e-44
3.1314018094309e-44
4.6311348475584e-45
7.8912037016032e-45
3.9861534037316e-45
0
0
0
0
0
0
0
0
0
0
3.3306964779025e-66
1.6340054804889e-66
6.6826706409296e-64
3.2797625704395e-64
6.464979087067e-62
3.176994495003e-62
4.0178149067229e-60
1.9789663100233e-60
1.8107783584614e-58
8.9476975958934e-59
6.3332228753075e-57
3.1420838928537e-57
1.7956359864529e-55
8.9506484247842e-56
4.2573907909773e-54
2.1334249875513e-54
8.6310927893778e-53
4.3504175732645e-53
1.5209203304771e-51
7.7147555713733e-52
2.3600222407207e-50
1.2053015172552e-50
3.257242843943e-49
1.6757203716634e-49
4.0303704169952e-48
2.0896311753453e-48
4.5018320277528e-47
2.3532482299237e-47
4.5676083873547e-46
2.4082009272023e-46
4.2289377025548e-45
2.2496762750724e-45
3.590154330743e-44
1.9272488294927e-44
2.8147675225772e-43
1.5239601382378e-43
2.0617400675777e-42
1.1240509285664e-42
1.4356697527642e-41
7.8624712523342e-42
9.6937858606858e-41
5.3213811984141e-41
6.4313877556915e-40
3.5378411934055e-40
4.1978931192049e-39
2.318318765671e-39
2.6752989336793e-38
1.4874235336852e-38
1.647501371254e-37
9.2440334381476e-38
9.7096300010408e-37
5.5070947693912e-37
5.433399539901e-36
3.1183657719227e-36
2.8694774009711e-35
1.6676575529243e-35
1.4239316058791e-34
8.3848315296982e-35
6.6194504542971e-34
3.9514735703073e-34
2.8770730332954e-33
1.7419991719298e-33
1.1677626083061e-32
7.1754133978961e-33
4.4230513343397e-32
2.7596957994741e-32
1.5626016346749e-31
9.9062947861715e-32
5.1469942657627e-31
3.3178064984759e-31
1.5798850423963e-30
1.0363568420084e-30
4.5162467924366e-30
3.0175050255757e-30
1.2012505889514e-29
8.1835228929689e-30
2.9699735965087e-29
2.0653008681495e-29
6.8191353393031e-29
4.8458475814132e-29
1.4534424640223e-28
1.0564420909336e-28
2.8784939828535e-28
2.140830585601e-28
5.3144012063893e-28
4.0417023995859e-28
9.2066490389798e-28
7.1450864136713e-28
1.5114890216913e-27
1.1927958818839e-27
2.3797149387524e-27
1.901169177462e-27
3.6329247762035e-27
2.9262921095414e-27
5.4149891107926e-27
4.3875243126373e-27
7.8836112259644e-27
6.4287818306932e-27
1.1136623808548e-26
9.1743785416085e-27
1.5061633880728e-26
1.2628354880942e-26
1.9065368389671e-26
1.6487264513063e-26
2.1829956732128e-26
1.9851710491801e-26
2.2542123473965e-26
2.1485042294683e-26
2.2564940748833e-26
2.1673245975663e-26
2.2019904061392e-26
2.1381681184624e-26
2.054631054361e-26
2.0408871949318e-26
1.7840805715355e-26
1.8384309163734e-26
1.4134874878274e-26
1.5303542841094e-26
1.0001850599727e-26
1.1535440662464e-26
6.1836803580633e-27
7.7151334346347e-27
3.2711020811384e-27
4.4868332085974e-27
1.4621479016731e-27
2.2327125199946e-27
5.5667774892988e-28
9.473212235464e-28
1.8716561226643e-28
3.4902252416495e-28
5.8644167011086e-29
1.1619451883335e-28
1.7945806619026e-29
3.6618190980586e-29
5.5004494259859e-30
1.1318842229522e-29
1.70141856681e-30
3.4961999131067e-30
5.3119074392107e-31
1.0864571885093e-30
1.6722754241017e-31
3.4020809419386e-31
5.3069004390984e-32
1.0737897929354e-31
1.697139288264e-32
3.4162042461066e-32
5.4629811754051e-33
1.0948912720427e-32
1.7658044165427e-33
3.5294127406206e-33
5.7124170753252e-34
1.1412294784623e-33
1.8429746754003e-34
3.6892358148643e-34
5.9115565618287e-35
1.1883702028597e-34
1.8811724682433e-35
3.803973251123e-35
5.9319586611666e-36
1.2078232162798e-35
1.8529148349745e-36
3.8005332867216e-36
5.7339219414108e-37
1.1847955100833e-36
1.7584233541102e-37
3.659724723218e-37
5.3459187964278e-38
1.1204150281693e-37
1.6117279294171e-38
3.4007319169691e-38
4.8202096408454e-39
1.0236826686187e-38
1.4304603213497e-39
3.0569687219316e-39
4.2135886380477e-40
9.0590064326905e-40
1.2323086332791e-40
2.6648112043962e-40
3.5796022491794e-41
7.7832298201999e-41
1.0324519179948e-41
2.2584579492231e-41
2.9707503491369e-42
6.4975329268475e-42
8.2380520293813e-43
1.8868201033887e-42
2.8532160847159e-43
4.7849672018436e-43
2.4524951729285e-43
0
0
0
0
0
0
0
0
1.0931500228878e-76
5.1829316839063e-77
1.1411086140306e-64
5.5165830739924e-65
2.0020845575186e-62
9.699638607148e-63
1.73514437618e-60
8.4272953225208e-61
9.8776383514776e-59
4.8116606610802e-59
4.1523201313336e-57
2.0297520819718e-57
1.3746477731704e-55
6.7464340762589e-56
3.7333153713315e-54
1.8404166559306e-54
8.5609951459284e-53
4.241122890442e-53
1.6920465814104e-51
8.4275452974172e-52
2.9269027903929e-50
1.4663044119418e-50
4.4859287778954e-49
2.2615165669551e-49
6.1468275901244e-48
3.1198857006854e-48
7.5864306174696e-47
3.8785826862756e-47
8.486946598991e-46
4.3726569144395e-46
8.64919969488e-45
4.4927622245566e-45
8.0670484110631e-44
4.226479997941e-44
6.9137832669939e-43
3.655212042508e-43
5.4593642372522e-42
2.9134944297855e-42
3.9883435980244e-41
2.1471471932657e-41
2.7331208491068e-40
1.4803299909477e-40
1.8076674452228e-39
9.8065213536995e-40
1.1963692268262e-38
6.4774094920686e-39
8.1253126915094e-38
4.3913754573894e-38
5.6604153341181e-37
3.0652919308232e-37
3.9565051200256e-36
2.1566699246861e-36
2.6974484782978e-35
1.4851296125232e-35
1.7523360533568e-34
9.7652573738998e-35
1.0677921635082e-33
6.0306066063152e-34
6.0460425192026e-33
3.4636560892451e-33
3.1642898749163e-32
1.8401178829381e-32
1.5266160181244e-31
9.0179396274494e-32
6.7809668653323e-31
4.0718242953967e-31
2.771936158147e-30
1.6932779979158e-30
1.0428894128722e-29
6.4860670633548e-30
3.6119740993295e-29
2.2891610919536e-29
1.1516176440402e-28
7.4451705175423e-29
3.3792921801662e-28
2.231149963764e-28
9.1229049631779e-28
6.1592169461309e-28
2.2646245923917e-27
1.5656709595557e-27
5.1634184826875e-27
3.6619406241819e-27
1.0788688589432e-26
7.8668212477865e-27
2.057831662108e-26
1.5473125271082e-26
3.5654460808761e-26
2.7737444014613e-26
5.5950692641337e-26
4.5135801517613e-26
7.9912158606977e-26
6.6745644979603e-26
1.0569389080594e-25
9.0734928566547e-26
1.3302299663818e-25
1.1601245100294e-25
1.6391730852286e-25
1.4349459434572e-25
2.0213278009782e-25
1.760166739815e-25
2.5190173732264e-25
2.17397709656e-25
3.154434307849e-25
2.7078510230556e-25