/*--------------------------------*- C++ -*----------------------------------*\
  =========                 |
  \\      /  F ield         | OpenFOAM: The Open Source CFD Toolbox
   \\    /   O peration     | Website:  https://openfoam.org
    \\  /    A nd           | Version:  7
     \\/     M anipulation  |
\*---------------------------------------------------------------------------*/
FoamFile
{
    version     2.0;
    format      ascii;
    class       volScalarField;
    location    "3.1";
    object      alpha.water;
}
// * * * * * * * * * * * * * * * * * * * * * * * * * * * * * * * * * * * * * //

dimensions      [0 0 0 0 0 0 0];

internalField   nonuniform List<scalar> 
6000
(
0
0
0
0
0
0
0
0
0
0
0
0
0
0
0
0
0
0
0
0
0
0
0
0
0
0
0
0
0
0
0
0
0
0
0
0
0
0
0
0
0
0
0
0
0
0
0
0
0
0
0
0
0
0
0
0
0
0
0
0
0
0
0
0
0
0
0
0
0
0
0
0
0
0
0
0
0
0
0
0
0
0
0
0
0
0
0
0
0
0
0
0
0
0
0
0
0
0
0
0
0
0
0
0
0
0
0
0
0
0
0
0
0
0
0
0
0
0
0
7.7147176905067e-209
1.5287809751803e-208
2.6326558763553e-208
3.3153696320316e-208
1.348645511562e-222
1.71577520709e-189
5.8102569596043e-189
2.2485991809676e-203
6.3790047687023e-205
8.5160381638789e-190
1.7032076459944e-189
6.1751160720356e-189
5.422154053397e-204
1.2296934416623e-189
4.7099998359003e-189
1.453392543249e-188
3.8692900288982e-188
8.9306066761833e-204
2.3921267882634e-204
3.0816469077114e-189
6.5840680794258e-189
6.3790047687023e-205
2.3354170232542e-189
4.862755934949e-244
3.4760903216941e-190
4.9835974755487e-207
8.8422326618785e-191
1.390505395597e-190
0
3.6522600640438e-191
0
7.4207428471702e-192
1.0440856669466e-191
0
2.3471527097869e-192
7.7868710555448e-209
8.7602299374879e-209
8.9308042579478e-194
2.3360613166634e-208
1.7533773286902e-194
1.1509968778977e-207
3.2493461456191e-195
2.3880941929415e-206
3.4760124349323e-196
5.1093546857897e-207
4.114124389511e-197
2.6368683031065e-197
2.2325227488916e-205
3.0267557499559e-198
2.9888396514071e-198
1.6098598639174e-198
1.4843727887894e-198
9.6329904654973e-204
2.1211339606497e-199
2.4304487978615e-204
1.9341816362297e-200
3.6526337457186e-204
2.924311419973e-201
2.0930695715037e-201
5.8751183976163e-202
6.2871532085738e-202
1.8769499285263e-202
1.9773032108794e-202
9.4941448864037e-203
7.3177946263497e-203
4.8473590896457e-203
2.1692663856528e-203
1.5529520982879e-203
6.7977975030756e-204
4.7014113530316e-204
2.0141453757725e-204
9.6271205672633e-205
6.3953753940356e-205
2.6641128548872e-205
1.721588422199e-205
7.0303596809976e-206
4.4178858437828e-206
2.4276504092844e-206
9.5985620497207e-207
5.7686125144653e-207
3.915455231237e-207
0
0
0
0
0
0
0
0
0
0
0
0
0
0
0
0
0
0
0
1.1391123625728e-153
6.2557994521618e-150
1.6967203166068e-161
1.7371177281351e-139
3.110191639069e-123
4.0703998081185e-123
2.2511982266434e-124
8.0357608704778e-123
4.0400041772977e-123
-1.4371067192188e-126
4.6886900106075e-123
7.1369341373399e-123
8.7389643248311e-123
1.2547016802389e-123
1.7683665207555e-124
3.8098377334028e-124
8.8098503147348e-124
5.0773303586076e-122
3.9545175806155e-123
1.8221623952696e-123
2.065638351418e-121
0
4.0278819467449e-119
3.1994411860618e-123
0
2.4940787393887e-122
2.1497203544214e-138
1.5471639866423e-121
1.8812932582204e-121
2.5017457267607e-121
2.9198662553209e-121
-4.92504292136e-138
5.2602202513403e-121
2.6112478136728e-121
1.1858755158531e-121
9.0303586492338e-122
0
7.5011187138707e-123
0
1.2399209810668e-127
0
4.1002265839883e-129
4.058320077237e-126
0
1.9855873775451e-128
0
0
2.3487218095549e-129
-3.2784110683622e-146
3.8824007011048e-134
0
7.6560301412599e-133
3.2015733089475e-149
1.5957021017984e-132
9.7682433338582e-137
0
0
1.5086050782003e-135
1.8773004816588e-139
0
1.8412759337482e-138
0
1.0898397469559e-138
1.5266291184175e-155
1.8014950932571e-143
1.8315347174387e-140
1.3414734334479e-140
4.7071360003578e-141
1.778206999588e-159
7.7505947853741e-146
7.028722103221e-143
0
5.244413839025e-144
0
7.6905514818525e-146
8.1423508261354e-146
4.4741659061932e-146
1.3905306554411e-146
2.2748546576761e-163
9.2472778055384e-149
5.1151643607118e-148
0
0
0
0
0
0
0
0
0
0
0
0
0
0
0
0
0
-1.181643160337e-91
-2.4734520979582e-90
-3.2182783399617e-89
-2.9837471812804e-88
-2.0390373667352e-87
-1.1069902339545e-86
2.5014016843624e-73
0
1.104797873093e-74
-1.2145585134194e-76
-4.810666127697e-78
6.1363668303719e-93
-3.5383385920312e-86
-8.3281247610385e-80
0
-1.9929591691766e-92
1.0149545156604e-92
0
2.874207588463e-66
4.3594933419036e-64
0
2.5894273698059e-81
2.2822611380386e-65
7.4809838040075e-65
1.2115894157929e-64
1.0358673332953e-64
5.0490729160157e-65
1.4557068487989e-65
1.8852011738204e-65
8.4482861038799e-65
3.4447169767478e-64
1.6727099172246e-63
4.8092822131654e-63
1.9201875854805e-62
8.9650760021764e-62
2.4545578574251e-61
6.0088255543147e-61
1.9448255176501e-60
4.7595559342697e-60
1.3981965725614e-59
2.8638553532006e-59
7.2682347865216e-59
1.5040334529224e-58
2.8806782263117e-58
6.9101391946868e-58
1.2644599189823e-57
2.663912557575e-57
4.6849153882576e-57
6.7581409707536e-57
1.0374426253263e-56
1.0669353308041e-56
1.1965207346641e-56
1.1483882564077e-56
1.0882760299676e-56
1.0827460651754e-56
9.3956531540537e-57
7.8479685250429e-57
5.225201482766e-57
2.596894959476e-57
9.4635937945295e-58
1.3056885578623e-58
4.8606862810835e-60
8.2815172489218e-61
1.6749924965428e-61
3.1177524157145e-62
1.8516363810662e-62
6.8695592315252e-63
5.2413298514727e-64
2.3411661412529e-64
1.7379494483481e-65
2.6531196922669e-66
1.5032823044099e-66
5.5290285677629e-67
3.5671680845088e-68
5.0441242456178e-69
2.8429010385211e-69
9.7429122171248e-70
2.7852506115459e-70
7.3100637041219e-71
1.8491120699604e-71
4.7002712450122e-72
9.9735616028165e-73
4.7951425592417e-73
0
0
0
0
0
0
0
0
0
5.2196533785401e-75
4.9161329343179e-73
1.8333910915384e-71
5.0310053119759e-70
9.7816894695303e-69
1.4454791155642e-67
2.7509987248814e-66
4.0424514562092e-65
5.667012235366e-64
6.0447829386842e-63
4.7898530572952e-62
6.7284161460082e-61
5.2253879256054e-60
3.1908281031112e-59
1.9392879973249e-58
1.5610833823285e-57
6.8457285824012e-57
4.767489744713e-57
0
0
0
5.1403703711205e-55
0
0
8.695034019718e-54
-2.3182538441796e-70
3.0556759487457e-51
1.1823655030137e-49
1.9383852617556e-49
5.0211631709686e-49
4.4938946975477e-50
-3.3790589766996e-56
2.5489166410161e-51
8.5341415212292e-65
5.3769116011133e-65
1.1251167890402e-51
1.0545242179514e-52
3.8346599353531e-53
3.8249254681942e-64
3.483617454338e-52
6.8322073566519e-48
3.1503948796558e-51
9.5780893971649e-50
2.6677432768277e-61
6.2547802970013e-46
2.5608325172238e-48
5.1974930440895e-60
2.3802086461856e-47
3.1096734012506e-59
4.6694334467636e-48
1.6266496606031e-58
2.5896341222762e-58
4.405197823943e-49
1.3670461282393e-57
8.4494737493181e-50
5.0214053211881e-57
6.5709011679554e-57
3.2250499304735e-51
1.13961618071e-56
6.183471541149e-52
1.2280319183602e-56
1.1661417558408e-56
9.7631478552283e-52
8.9877905703127e-56
1.4122106598372e-52
4.507996797097e-57
2.8460854981159e-57
2.3988494675123e-53
1.9182535791314e-57
3.3425000772982e-59
6.4427463028157e-59
1.1954859640275e-60
2.2848252303395e-61
2.3186051858281e-56
1.0750622221478e-56
2.4401958963436e-63
2.7505194339502e-56
7.3162314095644e-59
1.9041043060298e-65
4.3039568831343e-59
4.1398842870526e-59
1.910699906507e-67
3.5858196836425e-68
4.2373345774282e-60
2.1162647723994e-60
7.7657839641717e-61
7.2506426572871e-61
8.492976218753e-62
1.2921723347278e-61
3.1350282216287e-62
3.3101356666559e-62
0
0
0
0
0
0
0
1.0804003065509e-65
1.5115240504536e-63
1.0398728931977e-61
4.6955001004737e-60
1.5682016593574e-58
4.1400432271599e-57
9.0065160697074e-56
1.6587971400549e-54
2.6333057461241e-53
3.6504937343683e-52
4.4711306235086e-51
4.9008297368333e-50
4.8808227197979e-49
4.4923917967402e-48
3.8854438120051e-47
3.199039805294e-46
2.5247190802533e-45
1.9112545870094e-44
1.3829049702667e-43
9.5144711635409e-43
6.194197641949e-42
3.8020537399226e-41
2.1953714997947e-40
1.1911898536702e-39
6.0719459066501e-39
2.9085602933553e-38
1.3100980194153e-37
5.5533356161183e-37
2.2172296038514e-36
8.3457019903083e-36
2.9640846255536e-35
9.9416215274189e-35
3.1514213385097e-34
9.4484967549056e-34
2.6812270817951e-33
7.2063276431364e-33
1.8356542887003e-32
4.4345351145434e-32
1.0166479817238e-31
2.2133274420912e-31
4.5788659760524e-31
9.00689602962e-31
1.6854519981895e-30
3.001233211987e-30
5.0848791461076e-30
8.1916953047709e-30
1.2529085553811e-29
1.8138826907176e-29
2.4697483526845e-29
3.11443312386e-29
3.5396489182709e-29
3.634694319102e-29
3.6087022180335e-29
3.5011865498557e-29
3.2495933366019e-29
2.8094730244646e-29
2.2176905092239e-29
1.5621513660451e-29
9.5780288562159e-30
4.9773015741035e-30
2.1457046959741e-30
7.663873844445e-31
2.3501336497304e-31
6.6345597246841e-32
1.8479182005765e-32
5.2557127883427e-33
1.5287715534218e-33
4.5051110261865e-34
1.3357246515693e-34
3.9757008081608e-35
1.1881904030219e-35
3.5670287374061e-36
1.075157270182e-36
3.2490816728288e-37
9.8242228320017e-38
2.9659887852063e-38
8.9245157440553e-39
2.6727780892385e-39
7.9604399497599e-40
2.3567190879523e-40
6.9339964540488e-41
2.0273681260257e-41
5.8905411123092e-42
1.7008756700953e-42
4.8811580575494e-43
1.3923796603089e-43
3.9485957917297e-44
1.113317104196e-44
3.1230079181667e-45
8.6832201784288e-46
2.4675229965069e-46
5.5651828611526e-47
3.2668618403236e-47
0
0
0
0
0
0
9.647577481833e-66
2.0210536512049e-63
1.8794298424597e-61
1.0852641963683e-59
4.4684142423918e-58
1.4159001142912e-56
3.6256405000458e-55
7.7539175738685e-54
1.4164091468362e-52
2.2461600500961e-51
3.1321031216142e-50
3.8805166210244e-49
4.3083868547063e-48
4.3237647409256e-47
3.966260323927e-46
3.3737666241162e-45
2.7019878767859e-44
2.0625038770469e-43
1.5105858401747e-42
1.0629020621291e-41
7.1688782297798e-41
4.6165858310459e-40
2.8266803454854e-39
1.6394607397065e-38
8.9812836670118e-38
4.637964571983e-37
2.255072023245e-36
1.0318372874722e-35
4.4428149260515e-35
1.8006026917681e-34
6.872176559351e-34
2.4714098413657e-33
8.3802922916844e-33
2.6813283860958e-32
8.1012169335878e-32
2.3132141623176e-31
6.2478293687176e-31
1.5977164695426e-30
3.872199006737e-30
8.9030159655942e-30
1.9437867788873e-29
4.0331627496432e-29
7.9578561846043e-29
1.4936938357866e-28
2.6673848762323e-28
4.530790388645e-28
7.3155086116715e-28
1.1212536789412e-27
1.62720232077e-27
2.2235452339409e-27
2.821760589939e-27
3.2400805977168e-27
3.3537334087961e-27
3.3351749667372e-27
3.2490059684265e-27
3.0396411257187e-27
2.6572460464539e-27
2.1295992293926e-27
1.5304401864079e-27
9.6344995599674e-28
5.1815219018784e-28
2.3313777450433e-28
8.7401064980802e-29
2.8080561310744e-29
8.2209030165965e-30
2.3451942447495e-30
6.7811335819828e-31
2.0024720054938e-31
6.0000388452195e-32
1.8125986659346e-32
5.5066528344963e-33
1.6818371479814e-33
5.1636489625372e-34
1.5921704262366e-34
4.9207339433126e-35
1.5204661959051e-35
4.685252237208e-36
1.4368218786756e-36
4.3790803485485e-37
1.3254000944921e-37
3.9826345531301e-38
1.188069517948e-38
3.5188335120849e-39
1.0348937929763e-39
3.0227077029779e-40
8.7694344562963e-41
2.5275634679235e-41
7.2389914742136e-42
2.0604476666619e-42
5.832584505516e-43
1.6358660845145e-43
4.6889850926055e-44
1.0643138040038e-44
6.3248560617029e-45
0
0
0
0
0
4.4469569040302e-66
1.24537368842e-63
1.5034976836416e-61
1.0862413843165e-59
5.4448869708457e-58
2.0566751262749e-56
6.1708556099459e-55
1.5259989690045e-53
3.1927510643192e-52
5.7587374238925e-51
9.0842215660084e-50
1.2678020449192e-48
1.5793149583429e-47
1.769519652979e-46
1.7956066421124e-45
1.6609880891168e-44
1.411507765671e-43
1.1152762988109e-42
8.3280455299421e-42
5.9642649580203e-41
4.1231620714187e-40
2.7451860786582e-39
1.7496546404771e-38
1.0618899497367e-37
6.1177366560372e-37
3.3403004274655e-36
1.7267400153254e-35
8.4433473518427e-35
3.9014375779121e-34
1.7018850462587e-33
7.0022670053265e-33
2.7152967221879e-32
9.9175735023031e-32
3.4105019003628e-31
1.1039488804913e-30
3.3633601269907e-30
9.6463401900365e-30
2.6055837016167e-29
6.6334560997513e-29
1.5936706647202e-28
3.6194786510326e-28
7.789328563304e-28
1.5929318713198e-27
3.1050553184958e-27
5.7851875410075e-27
1.0321055735705e-26
1.7636308119487e-26
2.8821172726145e-26
4.4903849173745e-26
6.6403384076374e-26
9.2585140383083e-26
1.201545329252e-25
1.4159297137645e-25
1.4938359300929e-25
1.4904701577906e-25
1.4604680009127e-25
1.3798182861142e-25
1.2234792676587e-25
9.9782674796982e-26
7.3271176219165e-26
4.7378922444373e-26
2.6347559787446e-26
1.23477195907e-26
4.8468206728287e-27
1.6292179428851e-27
4.9491856684458e-28
1.4486528383133e-28
4.2654444887711e-29
1.2798793979949e-29
3.9008724732337e-30
1.2011115782507e-30
3.7260962283714e-31
1.16374554209e-31
3.657131126808e-32
1.1546066376384e-32
3.6526724209549e-33
1.1542629007525e-33
3.6325569220062e-34
1.1358606707224e-34
3.5239010838248e-35
1.0840293277828e-35
3.3063353050902e-36
1.0000621327237e-36
3.0005422087909e-37
8.9326523893486e-38
2.6392254027534e-38
7.74093919807e-39
2.2544465629875e-39
6.5212376346493e-40
1.8739002513699e-40
5.3532693598102e-41
1.5146543284856e-41
4.3795893237453e-42
1.0003755931357e-42
6.020664226932e-43
0
0
0
0
0
3.143894952777e-64
6.3362039235165e-62
6.1598495806672e-60
3.8484685476627e-58
1.7442386579784e-56
6.1367316498308e-55
1.7506990997201e-53
4.177501061088e-52
8.5255591255362e-51
1.5127059456627e-49
2.3641073284994e-48
3.2872214867377e-47
4.0990253510406e-46
4.6153187366599e-45
4.7218133486783e-44
4.4095279337767e-43
3.7763370242869e-42
2.9857688852172e-41
2.2030562522779e-40
1.5424006650013e-39
1.0450119836439e-38
6.9496958541395e-38
4.5483002611295e-37
2.9097254754108e-36
1.8013836378375e-35
1.0688763375949e-34
6.0304331096834e-34
3.215094260199e-33
1.6125393345449e-32
7.58489214044e-32
3.3390965250758e-31
1.374062505903e-30
5.2815652082936e-30
1.8953886259225e-29
6.3482344807234e-29
1.9835642868137e-28
5.778777060276e-28
1.5685376425062e-27
3.962995171047e-27
9.3115196934108e-27
2.0334854251986e-26
4.1292106503871e-26
7.8143963626296e-26
1.3853377729229e-25
2.3201609975006e-25
3.7117282206414e-25
5.7367554476413e-25
8.6395583805267e-25
1.2715323963469e-24
1.821900283884e-24
2.5159351637865e-24
3.292620340927e-24
3.9721515196308e-24
4.2980183902145e-24
4.3150069532272e-24
4.2536045500503e-24
4.0582890379712e-24
3.6545789394863e-24
3.036901783991e-24
2.2808671763214e-24
1.5152935137106e-24
8.706737751393e-25
4.2425495920674e-25
1.7398161487726e-25
6.1097235835814e-26
1.9262827140012e-26
5.7942503367247e-27
1.7401913253073e-27
5.3116932124975e-28
1.6478879675402e-28
5.1743884156734e-29
1.6401517499413e-29
5.2424621215742e-30
1.6878314985637e-30
5.4615277270447e-31
1.7702999788223e-31
5.7261257565808e-32
1.84171764803e-32
5.8749464194459e-33
1.8559905442873e-33
5.80424097947e-34
1.7971982625964e-34
5.5122226023894e-35
1.6755170980888e-35
5.0494610872247e-36
1.5092809508132e-36
4.475738201927e-37
1.317238959023e-37
3.8486476067195e-38
1.1166011294851e-38
3.2194778819972e-39
9.190275964436e-40
2.6809422136333e-40
6.1620356588573e-41
3.7575165001487e-41
0
0
0
0
1.0287704706954e-74
1.0768228200876e-62
1.8990046968581e-60
1.6545766702409e-58
9.4711676732373e-57
4.0043414136529e-55
1.3335530576767e-53
3.6439563197795e-52
8.4089452488989e-51
1.6728446363023e-49
2.9131727564261e-48
4.4959875384512e-47
6.2051600446469e-46
7.7158828246825e-45
8.6990364484052e-44
8.9371006826428e-43
8.4054977912234e-42
7.2667895956494e-41
5.7901778815633e-40
4.2670850211189e-39
2.943961948053e-38
1.9528059962472e-37
1.290855314192e-36
8.7387896382428e-36
6.0746444363825e-35
4.2496861701745e-34
2.9096433602312e-33
1.9037437327122e-32
1.1710612029574e-31
6.7059090496076e-31
3.5547795256266e-30
1.7393657233377e-29
7.845280252591e-29
3.2603485539146e-28
1.2484930671015e-27
4.406388798236e-27
1.4335141837341e-26
4.2981965589698e-26
1.187446919362e-25
3.0214467848177e-25
7.0752781742509e-25
1.5221165891205e-24
2.9989233290967e-24
5.3868716353233e-24
8.7865626559543e-24
1.302806957094e-23
1.776401691386e-23
2.2794518771461e-23
2.8319723702551e-23
3.4923632776875e-23
4.3388008862155e-23
5.4355079911954e-23
6.7660498793614e-23
8.1083017840607e-23
8.9534950825101e-23
9.0874609223373e-23
9.0007226583303e-23
8.6717431161042e-23
7.9345853447601e-23
6.7237493560723e-23
5.170032720736e-23
3.5309369022848e-23
2.0960920229086e-23
1.0609633116726e-23
4.538911669478e-24
1.6634034764059e-24
5.4440196240007e-25
1.685127587569e-25
5.1705455264081e-26
1.6074871778566e-26
5.0806511143766e-27
1.6280489524276e-27
5.2768016853531e-28
1.7276179534785e-28
5.7040417447924e-29
1.8937143684825e-29
6.2957792072247e-30
2.0863631072314e-30
6.8635951784311e-31
2.2349875011981e-31
7.1932588125233e-32
2.2876794926031e-32
7.1927526388786e-33
2.2374533361936e-33
6.8910949355296e-34
2.1025988840388e-34
6.3586574679637e-35
1.9067445622029e-35
5.6715464243734e-36
1.6739947237419e-36
4.904249727578e-37
1.427346471957e-37
4.1112480033582e-38
1.2101339195e-38
2.7986328919451e-39
1.7299653335768e-39
0
0
0
0
1.0114968476543e-73
2.387588261403e-61
3.9278142201328e-59
3.2146785701025e-57
1.7418927855674e-55
7.0227300847185e-54
2.245365742433e-52
5.9270125019092e-51
1.3285825154249e-49
2.5803736000869e-48
4.4081725642614e-47
6.7050541913815e-46
9.1592155569482e-45
1.1319404055723e-43
1.2734812192733e-42
1.3092606977675e-41
1.2358775636334e-40
1.0759868558855e-39
8.6532035567727e-39
6.4198780772443e-38
4.4076608264486e-37
2.868499612576e-36
1.8673128780076e-35
1.2883646587328e-34
9.5877288602305e-34
7.4413108252778e-33
5.7142592793592e-32
4.1628419983311e-31
2.8082004684966e-30
1.7352532320094e-29
9.7885014429177e-29
5.0408303863631e-28
2.3728545194308e-27
1.0225553905436e-26
4.0400074646076e-26
1.4651589117881e-25
4.8816860663988e-25
1.4950233433641e-24
4.2090642576276e-24
1.0891387201242e-23
2.5885099481907e-23
5.6414007395525e-23
1.1232527202486e-22
2.0348378723292e-22
3.336187239532e-22
4.900380152651e-22
6.3884681175812e-22
7.4804354567507e-22
8.1935201333447e-22
8.7697027781099e-22
9.439130970014e-22
1.0377484041998e-21
1.1682562848524e-21
1.3259005188541e-21
1.4549835404066e-21
1.4904349045753e-21
1.4811653919328e-21
1.4389934846515e-21
1.3363520442545e-21
1.154793939523e-21
9.0934238806462e-22
6.3839563857351e-22
3.9117293352708e-22
2.0531188513391e-22
9.1447826459957e-23
3.4932524263657e-23
1.1873224733907e-23
3.7888906624545e-24
1.190270501675e-24
3.775380553432e-25
1.2170843779754e-25
3.9837449271518e-26
1.3215101434702e-26
4.436130239061e-27
1.5036513846848e-27
5.1275399111085e-28
1.7503385801958e-28
5.9488712268982e-29
2.0035213957968e-29
6.6649729421344e-30
2.1867613273932e-30
7.0759130740727e-31
2.2599122968589e-31
7.131814657057e-32
2.2260941874565e-32
6.878085017795e-33
2.10493157382e-33
6.3836969423846e-34
1.9193902594075e-34
5.7239536158877e-35
1.693605685044e-35
4.9762906560451e-36
1.4464867879269e-36
4.2968247258281e-37
9.9977803150466e-38
6.2683556377693e-38
0
0
0
0
4.853017471675e-74
3.8605644560954e-60
6.0991489636243e-58
4.8043684186043e-56
2.5125698121886e-54
9.8061033032402e-53
3.0442120102523e-51
7.8254754987255e-50
1.7130681640685e-48
3.2583663349548e-47
5.4672728094837e-46
8.1926450950756e-45
1.105961159396e-43
1.3551162077697e-42
1.5167903016679e-41
1.5559980810273e-40
1.4694165312719e-39
1.2835062554506e-38
1.0393104416053e-37
7.7867336054503e-37
5.3698756029705e-36
3.4500600427651e-35
2.1903716465919e-34
1.5019776213228e-33
1.1572682645068e-32
9.577424420539e-32
7.9060886940708e-31
6.1732380101606e-30
4.4356174500102e-29
2.8973063159818e-28
1.7136773999655e-27
9.1851280609017e-27
4.4750425648583e-26
1.9891123766259e-25
8.0925407141282e-25
3.020734578794e-24
1.0360247402621e-23
3.2667911530293e-23
9.4699176838126e-23
2.5222325547007e-22
6.164918360492e-22
1.3802208172601e-21
2.8214786065944e-21
5.2447744985453e-21
8.8065087177895e-21
1.3190110793564e-20
1.7270223589754e-20
1.9587562844703e-20
2.0060617169454e-20
1.9933848427342e-20
1.9381092571224e-20
1.8619715070621e-20
1.8662792336148e-20
1.9098132548509e-20
1.979834593021e-20
2.0153918086149e-20
2.0071382708824e-20
1.9595466225041e-20
1.834015800154e-20
1.6050788263171e-20
1.2866576533e-20
9.251037883097e-21
5.842823652137e-21
3.1808707186917e-21
1.4767462064651e-21
5.8884645782366e-22
2.0818736760254e-22
6.8604823331201e-23
2.2099207344697e-23
7.1601765485592e-24
2.3566680448397e-24
7.8864414089144e-25
2.6800012921644e-25
9.2332635788175e-26
3.2163650746376e-26
1.1278096523653e-26
3.9574123203135e-27
1.38093381433e-27
4.7663285149656e-28
1.6213729147534e-28
5.4274436086141e-29
1.7880492247521e-29
5.8039691139787e-30
1.8589053661269e-30
5.88228695839e-31
1.8409368413431e-31
5.702574332122e-32
1.7494677504937e-32
5.3182451479271e-33
1.6027549274503e-33
4.7903031385431e-34
1.421253368369e-34
4.1698233455153e-35
1.2502773126629e-35
2.9266501036983e-36
1.8622890128979e-36
0
0
0
0
3.9272747722381e-91
4.860816598758e-59
7.4906383173541e-57
5.7586123495934e-55
2.9419827373567e-53
1.1229236421579e-51
3.4134539381409e-50
8.6031602422128e-49
1.8488359795749e-47
3.4568917903818e-46
5.7104938204117e-45
8.4384496738944e-44
1.1255514558324e-42
1.3656544310594e-41
1.5175174895614e-40
1.5497078807713e-39
1.4603291420124e-38
1.2755240567998e-37
1.0358967991041e-36
7.8234278639275e-36
5.4520786425418e-35
3.4943216175661e-34
2.1562487551405e-33
1.4292674189003e-32
1.0970650017087e-31
9.3392610365898e-31
8.043527085484e-30
6.5723560746358e-29
4.9379431479962e-28
3.371922564826e-27
2.0866420768656e-26
1.1700466966187e-25
5.9513115937585e-25
2.7519871592981e-24
1.1604691517675e-23
4.4763152008431e-23
1.5833275958018e-22
5.1433454443008e-22
1.5354444337021e-21
4.2121087647905e-21
1.060950622753e-20
2.4496711842924e-20
5.1714995476405e-20
9.9454154007178e-20
1.7316451725594e-19
2.6968703234454e-19
3.6621531631492e-19
4.20254910731e-19
4.2564677675495e-19
4.1817213201886e-19
3.9433593824066e-19
3.508213753498e-19
2.9959501641174e-19
2.6063830175224e-19
2.4246613797763e-19
2.3535831774734e-19
2.2993612925167e-19
2.2177405130695e-19
2.0711899289542e-19
1.8307743697204e-19
1.4956291324049e-19
1.1035520916766e-19
7.1948711271902e-20
4.065738682036e-20
1.9681003985213e-20
8.1958556716803e-21
3.0171144124819e-21
1.0281555099631e-21
3.4007356374081e-22
1.1267694231071e-22
3.7897383845409e-23
1.2976438589618e-23
4.521125288887e-24
1.6000828175406e-24
5.7337622350046e-25
2.0695191511489e-25
7.4728868720892e-26
2.6804353044009e-26
9.4925971338175e-27
3.305830127244e-27
1.1302104115945e-27
3.7943234421974e-28
1.2526384303856e-28
4.0739767855307e-29
1.307476911142e-29
4.1460986210255e-30
1.3003375180442e-30
4.0364799111891e-31
1.2409106417159e-31
3.7801029475269e-32
1.1414904417931e-32
3.4204561804264e-33
1.0130915688989e-33
3.0667835973616e-34
7.2213212986587e-35
4.6666989988182e-35
0
0
0
0
0
4.9686851183696e-58
7.5380116669682e-56
5.7045441324573e-54
2.8692907129942e-52
1.0785676069722e-50
3.2301782885537e-49
8.0246630219486e-48
1.7005823777613e-46
3.1371820911164e-45
5.1162892487423e-44
7.4691949057501e-43
9.8525489907818e-42
1.1836745037968e-40
1.304362136102e-39
1.3238179983696e-38
1.2423297545541e-37
1.0824805161509e-36
8.7874233976714e-36
6.6604448332706e-35
4.6914127751821e-34
3.0321035962082e-33
1.8339718808008e-32
1.151416051474e-31
8.4390154165267e-31
7.1363171379878e-30
6.2736247587139e-29
5.283195342581e-28
4.108863703455e-27
2.9139317613076e-26
1.8784341421755e-25
1.1012898033591e-24
5.8787448732351e-24
2.8585566797996e-23
1.2663148742787e-22
5.1160550236046e-22
1.8895135960915e-21
6.3963361611638e-21
1.9882872986869e-20
5.6784664333876e-20
1.4889298776124e-19
3.5769220405292e-19
7.8483677517035e-19
1.5661738252505e-18
2.8237804197506e-18
4.544695606278e-18
6.357329529641e-18
7.4302756890347e-18
7.5460568851994e-18
7.3945852315735e-18
6.8969415518418e-18
5.9341906430825e-18
4.6728804834877e-18
3.5207538425491e-18
2.7852239993696e-18
2.43621409781e-18
2.2668888844943e-18
2.1363799197455e-18
1.9793652922977e-18
1.7586303421568e-18
1.4606072473172e-18
1.1056265480041e-18
7.448911048874e-19
4.3757230507351e-19
2.2114257680946e-19
9.626610326451e-20
3.6925680882678e-20
1.302185632602e-20
4.4257784221007e-21
1.5005568905414e-21
5.160576019227e-22
1.8092269047751e-22
6.4674590240149e-23
2.3531500962704e-23
8.6818742641119e-24
3.2286818874457e-24
1.2010585309071e-24
4.4337516054528e-25
1.6132494845309e-25
5.7595833928931e-26
2.0137497995131e-26
6.8971768944657e-27
2.3180087251773e-27
7.6609115703786e-28
2.4949172283789e-28
8.0196157262992e-29
2.5474166403112e-29
8.0036000791958e-30
2.4889416541659e-30
7.6656861533726e-31
2.3393469240263e-31
7.0811804875087e-32
2.1177586630579e-32
6.4737120989012e-33
1.5332404511883e-33
1.007007820966e-33
0
0
0
9.6741243332692e-86
2.1388260364651e-71
4.2436559647022e-57
6.3755888338795e-55
4.7762953627108e-53
2.377717283835e-51
8.8451994975922e-50
2.621558010294e-48
6.4454810216742e-47
1.3518814048541e-45
2.4684670424628e-44
3.985184588572e-43
5.7600451739636e-42
7.5251956248338e-41
8.9586181622857e-40
9.788960224074e-39
9.8651177929159e-38
9.2071562600784e-37
7.9895177412051e-36
6.4683182562351e-35
4.9003005919332e-34
3.4729607457609e-33
2.2742248208023e-32
1.3716359545131e-31
8.1600242757315e-31
5.4928084700595e-30
4.4143640524844e-29
3.8636125356432e-28
3.3171274961259e-27
2.6559568586836e-26
1.9483574666048e-25
1.3037772017948e-24
7.96465301267e-24
4.450415804808e-23
2.2773680228579e-22
1.0690422925391e-21
4.6060128183667e-21
1.8187587121412e-20
6.5751479090274e-20
2.1766812446667e-19
6.5984704782961e-19
1.829161693112e-18
4.6237804576884e-18
1.0615885524588e-17
2.2018449170446e-17
4.0969834145431e-17
6.7487769901111e-17
9.5585741775771e-17
1.1181061040929e-16
1.1312331083145e-16
1.1035796391177e-16
1.0158942704352e-16
8.4909907244341e-17
6.3214597489788e-17
4.2979873170495e-17
2.9344210180523e-17
2.2518567295524e-17
1.949787329376e-17
1.7793926883112e-17
1.6287578318433e-17
1.4495884808255e-17
1.2205569439857e-17
9.4637150397935e-18
6.5864725587964e-18
4.0238402123307e-18
2.1247001404366e-18
9.6763010780547e-19
3.8711234006639e-19
1.4142630038486e-19
4.9440001678314e-20
1.7165069639741e-20
6.0389897099607e-21
2.168610242598e-21
7.9574877631386e-22
2.9783307480047e-22
1.1322165944819e-22
4.3423099644296e-23
1.6659378356409e-23
6.3375860734926e-24
2.3727477759875e-24
8.6981769377533e-25
3.1150422513054e-25
1.0900385340039e-25
3.7338285813128e-26
1.2551383894843e-26
4.1507137844537e-27
1.3531013334745e-27
4.3548791739221e-28
1.3852939213387e-28
4.3590252795426e-29
1.3577375429042e-29
4.1883548961532e-30
1.2810198838207e-30
3.8692375377126e-31
1.1946665804136e-31
2.8455949848046e-32
1.90090054328e-32
0
0
0
7.7755512587246e-83
4.9535791754269e-70
3.0922748184676e-56
4.6190340559033e-54
3.4388300254165e-52
1.7006026454184e-50
6.2826829736715e-49
1.8488448806177e-47
4.5126516274099e-46
9.3945924083487e-45
1.7024216663247e-43
2.7273187905198e-42
3.910955521878e-41
5.0690912455172e-40
5.987234390102e-39
6.4911412040273e-38
6.4948073340875e-37
6.0240249937942e-36
5.1999907365465e-35
4.1922922960783e-34
3.1662556489473e-33
2.2458449133106e-32
1.4855362970316e-31
9.0547814391371e-31
5.2233841456045e-30
3.1874732182782e-29
2.308867602406e-28
1.9293789238316e-27
1.6600567770141e-26
1.3615587211723e-25
1.0319911912374e-24
7.1597239453779e-24
4.5431906920201e-23
2.6449164645752e-22
1.4207160821734e-21
7.0596874947256e-21
3.2473781106061e-20
1.3852304141017e-19
5.4532277152212e-19
1.961197123968e-18
6.4008328647906e-18
1.8911438117787e-17
5.04985101301e-17
1.2153408473061e-16
2.6243558369059e-16
5.0463795545129e-16
8.5218176595542e-16
1.2223924205986e-15
1.4268993475316e-15
1.4377258448841e-15
1.3936507699223e-15
1.262209212474e-15
1.0212408174304e-15
7.2004603181537e-16
4.4827467260967e-16
2.6948412989057e-16
1.8179102638909e-16
1.4544097313161e-16
1.2825072510457e-16
1.1601722873207e-16
1.0341237777941e-16
8.8168965994182e-17
6.9908505947547e-17
5.0181447797546e-17
3.1845781713764e-17
1.7560793419074e-17
8.3722708615804e-18
3.5000493487108e-18
1.3283089719475e-18
4.7882553485227e-19
1.7050952165348e-19
6.1412406645752e-20
2.2595327098749e-20
8.5126920765317e-21
3.2787547671652e-21
1.285038903495e-21
5.0868584224827e-22
2.0149484000556e-22
7.9101816331886e-23
3.0522841262813e-23
1.1510115458914e-23
4.2300268810521e-24
1.5148981728712e-24
5.2966530904354e-25
1.813042089089e-25
6.0934041017849e-26
2.015767947117e-26
6.5762882429947e-27
2.1187663752303e-27
6.7481328500024e-28
2.1262930389962e-28
6.6320677045199e-29
2.0500728375505e-29
6.2550946559696e-30
1.9512180392112e-30
4.6734528125717e-31
3.1779332070562e-31
0
0
0
1.2467964639204e-83
7.9531229968803e-69
1.9527548406855e-55
2.9083609446309e-53
2.1578250764544e-51
1.0629644354934e-49
3.9101924850976e-48
1.1453800184827e-46
2.7820089301319e-45
5.7618419682184e-44
1.0384709244163e-42
1.654233413772e-41
2.3579686874811e-40
3.037191137792e-39
3.56414401577e-38
3.8380237295823e-37
3.8144926697913e-36
3.5156459841775e-35
3.0171021977334e-34
2.4198607623916e-33
1.8193172305357e-32
1.2867095231017e-31
8.5429845994905e-31
5.2727917194957e-30
3.0292733395878e-29
1.7197948020885e-28
1.089027245931e-27
8.1588265113759e-27
6.7565523631253e-26
5.5891471051651e-25
4.3632497444223e-24
3.1435037417751e-23
2.0739694234092e-22
1.2569847561836e-21
7.0592297958061e-21
3.6955096933253e-20
1.8095023244689e-19
8.2470180503202e-19
3.4941073036464e-18
1.3764574373276e-17
4.9535025497285e-17
1.5976493034112e-16
4.5795338920816e-16
1.1639894648437e-15
2.6165064251588e-15
5.1738904123107e-15
8.876351786935e-15
1.2776834766482e-14
1.4803401031696e-14
1.4846407565358e-14
1.4309773847857e-14
1.27682226422e-14
1.0039317722825e-14
6.7604444686998e-15
3.9184240216136e-15
2.1200414788917e-15
1.2694749311036e-15
9.366472606439e-16
7.9803151839588e-16
7.1484989008913e-16
6.3905183894125e-16
5.5173644836145e-16
4.4687391482737e-16
3.3028037484383e-16
2.1736257248943e-16
1.2506100747669e-16
6.2457983786156e-17
2.7355278437408e-17
1.0827724887738e-17
4.0413445363217e-18
1.4805032800463e-18
5.468053654985e-19
2.0628972143136e-19
7.9828037210327e-20
3.1652248187471e-20
1.2796303240872e-20
5.2321582323173e-21
2.142006251519e-21
8.6895961350127e-22
3.4617706400239e-22
1.3455465406594e-22
5.0852092242231e-23
1.8676494589862e-23