/*--------------------------------*- C++ -*----------------------------------*\
  =========                 |
  \\      /  F ield         | OpenFOAM: The Open Source CFD Toolbox
   \\    /   O peration     | Website:  https://openfoam.org
    \\  /    A nd           | Version:  7
     \\/     M anipulation  |
\*---------------------------------------------------------------------------*/
FoamFile
{
    version     2.0;
    format      ascii;
    class       volScalarField;
    location    "3.2";
    object      alpha.water;
}
// * * * * * * * * * * * * * * * * * * * * * * * * * * * * * * * * * * * * * //

dimensions      [0 0 0 0 0 0 0];

internalField   nonuniform List<scalar> 
6000
(
0
0
0
0
0
0
0
0
0
0
0
0
0
0
0
0
0
0
0
0
0
0
0
0
0
0
0
0
0
0
0
0
0
0
0
0
0
0
0
0
0
0
0
0
0
0
0
0
0
0
0
0
0
0
0
0
0
0
0
0
0
0
0
0
0
0
0
0
0
0
0
0
0
0
0
0
0
0
0
0
0
0
0
0
0
0
0
0
0
0
0
0
0
0
0
0
0
0
0
0
0
0
0
0
0
0
0
0
0
0
0
0
0
0
0
0
0
0
0
6.4597586580884e-210
2.112602806343e-209
4.5426333580267e-209
7.3642396077319e-209
4.7624044627064e-222
2.7224125450249e-190
9.225555794781e-190
5.8447631193237e-203
8.7389873473131e-203
1.7406709262597e-202
5.8921532517295e-190
1.9227546570163e-189
6.1397920898762e-204
3.8478821477622e-190
1.4727867380464e-189
4.6951889164796e-189
1.3374595320739e-188
4.8002010884488e-203
2.1529141094371e-204
1.1336093728374e-189
2.6104987772468e-189
9.5685071530538e-205
9.9358391129764e-190
7.8662228359472e-245
1.5260668998949e-190
2.4917987377744e-207
4.5027712605081e-191
7.4397551579411e-191
1.2458993688872e-207
2.072589261158e-191
3.114748422218e-208
4.0082104829239e-192
6.2046661744871e-192
7.7868710555451e-209
1.8603630013149e-192
3.8934355277725e-209
3.8934355277725e-209
6.615822443049e-194
7.6872825706691e-209
1.4159838451742e-194
4.0649105445512e-208
2.8768210277777e-195
5.2857189473246e-207
3.390499549864e-196
2.0387686180208e-207
4.2386430667528e-197
2.8152008698821e-197
1.1917546196512e-205
3.3463991044389e-198
3.5358775543024e-198
1.9944115129362e-198
1.9956036782831e-198
4.7319914154588e-204
3.1101924155593e-199
9.9658525927794e-205
3.0045875716991e-200
1.7547728530712e-204
4.9606929791334e-201
1.3374048648831e-201
4.0558229552124e-202
9.1677462596214e-202
1.4207373976558e-202
2.8250281065136e-202
1.5381055570738e-202
1.3847374979193e-202
1.0428535625049e-202
4.9842402379382e-203
3.953504770072e-203
1.8378752398129e-203
1.3707427876668e-203
6.1635881612337e-204
3.0832018633842e-204
2.1759032535108e-204
9.4483002622593e-205
6.4660890604086e-205
2.7505800920068e-205
1.8309749675857e-205
1.0667267144884e-205
4.4766541105568e-206
2.8839317441746e-206
2.1091722265506e-206
0
0
0
0
0
0
0
0
0
0
0
0
0
0
0
0
0
0
0
8.9154851275576e-155
4.8975202793169e-151
6.369945774293e-163
3.7617484152182e-140
4.4444880032485e-124
2.7705435505308e-124
7.5080079113402e-126
1.1418165306951e-123
3.7771454546453e-125
2.4150272234712e-125
4.3631800502514e-124
1.1346443621913e-123
2.4593094680488e-123
3.4095154025876e-125
3.8936006228941e-125
9.5930498327417e-125
1.8987692317303e-124
9.5340858167366e-123
-1.5855636781582e-127
2.9081654228594e-124
4.7802416632671e-122
-5.1253327236688e-142
3.09153661267e-119
2.4605828203425e-123
-7.0403341607304e-137
3.5137898162318e-122
1.4354597017909e-230
1.000590433414e-121
1.1407095317241e-121
1.5931442431597e-121
1.4334535095704e-121
1.491260578322e-122
3.0640411116154e-121
3.477118641491e-121
2.1200119438481e-121
1.6926190213397e-121
0
1.7558005379406e-122
2.7501305315353e-139
2.9022896249999e-127
8.4660245929561e-141
9.5976605750508e-129
1.0526429303539e-125
0
5.1391170096429e-128
0
0
6.6094753347329e-129
0
1.0925326444182e-133
0
2.1627174407868e-132
0
5.1777875418586e-132
3.2097610504164e-136
-1.5641274181118e-149
0
5.590750830736e-135
6.6083970720779e-139
-9.3229259140004e-154
6.4743924284178e-138
0
4.0406720197885e-138
0
6.6791790729824e-143
7.0932844022769e-140
5.3420623554823e-140
2.048971755255e-140
2.3142297175439e-157
3.3258132435722e-145
3.1219279613378e-142
0
2.3986862522554e-143
3.502759007142e-144
3.5543621376854e-145
3.7803411087132e-145
2.0912755953357e-145
7.1720506059417e-146
9.0994186307048e-163
5.1640048846086e-148
2.8985349620123e-147
0
0
0
0
0
0
0
0
0
0
0
0
0
0
0
0
0
-9.2483607133106e-93
-2.0704171477802e-91
-2.8114394450472e-90
-2.7253716838236e-89
-1.9669766365607e-88
-1.1282171782676e-87
1.0805399933923e-74
6.646969819655e-76
3.5568394551761e-75
-3.1160141975394e-80
-4.4454847942725e-78
-1.5384190338582e-93
-1.8621698933128e-86
-2.2952015172112e-80
-1.1991675075386e-95
-4.1258810656981e-93
-4.5719495651292e-98
-4.7914031442554e-98
8.4812177478131e-68
2.1371520735256e-65
1.4889114002209e-66
6.0380850524461e-83
3.7916194498011e-67
1.5095212631115e-83
6.1043893054177e-66
1.3218619480941e-65
1.361805877042e-65
1.1279025016906e-65
5.2523965086631e-66
4.3156770089817e-66
7.2280764793381e-66
6.6825765077779e-65
0
2.0691023129129e-65
1.4017133059235e-63
1.0777935058635e-62
-2.7367545860627e-79
1.8375939206867e-62
1.0032089571079e-61
4.8206158878686e-61
1.101730086238e-60
3.011162527513e-60
6.4574530904247e-60
1.2689732365035e-59
3.1438631824538e-59
5.9584751292872e-59
1.35367769647e-58
2.5659309545443e-58
4.310895701405e-58
8.3403093691754e-58
1.1154842120348e-57
1.5644706514972e-57
1.5773484171079e-57
1.5424239268508e-57
1.6323454825284e-57
1.5362868339972e-57
1.5055890631844e-57
1.2788581307715e-57
9.5186098412696e-58
6.2376509770879e-58
2.8125177195796e-58
6.5602865129992e-59
3.8088047105051e-60
3.3886182387682e-61
5.9866254995805e-62
3.5920405256255e-62
1.3548834535734e-62
1.1194510464344e-63
4.786742828163e-64
4.6354808464277e-65
5.5128583172602e-66
3.0511811158214e-66
1.1246042012076e-66
7.2521488453414e-68
1.0223078437326e-68
5.7896892735869e-69
1.9942447315797e-69
5.7320821401709e-70
1.5115861029387e-70
3.8384615224096e-71
9.7997334229646e-72
2.0798240441528e-72
1.0169513265037e-72
0
0
0
0
0
0
0
0
0
5.0739109011667e-77
4.7915255502371e-75
1.8992463764356e-73
5.5448383092148e-72
1.128719930997e-70
1.74847166923e-69
3.2388404233881e-68
4.82802526433e-67
7.2370011058328e-66
8.4200868915533e-65
7.0266902242097e-64
8.9646379053682e-63
8.0549030815422e-62
5.7452517767104e-61
3.4015834568231e-60
2.4760546499876e-59
2.3394866739131e-58
5.8515735208218e-58
1.8014845262444e-58
0
-8.8434366004168e-76
4.2922749382017e-56
4.4957820817369e-73
1.1319598848534e-73
7.4656787831585e-55
0
8.2461541178809e-53
2.3305519345681e-51
6.2233907949927e-51
3.3757703158491e-50
2.7704411229226e-50
8.3959922892691e-51
3.0839929402493e-51
9.8219946660488e-54
1.4522570805085e-65
2.3857715052242e-52
2.3371022856056e-53
4.7629643653677e-66
7.0866701762728e-66
7.8320807343792e-53
2.7218032808468e-48
6.0689103736011e-65
8.145705718271e-50
1.1463060647947e-62
2.2102283271475e-46
1.6932121063829e-47
1.1563970536498e-61
1.4192481630437e-47
1.1991760865257e-60
3.2204929789306e-48
6.9891108586498e-60
1.1333081647832e-59
3.3677524667367e-49
6.4531769916663e-59
6.5583903802904e-50
2.764073136182e-58
4.0078706809779e-58
2.5305806625729e-51
1.1922165009043e-57
4.8937138530902e-52
1.6828598552245e-57
1.6502110968419e-57
8.9052544656907e-52
7.0858958548393e-56
1.3105139324152e-52
1.2621287007833e-57
1.0175247167763e-57
2.5298502912356e-53
2.0954595626005e-57
8.4568708228796e-59
7.238708935724e-59
2.2934634826727e-60
4.3539205513541e-61
2.2595980528337e-56
1.3978981113551e-56
4.7891104436841e-63
3.9874938719198e-56
1.2556512837044e-58
3.8467307212195e-65
6.5197091794933e-59
6.5580498435921e-59
3.8626111981393e-67
7.2531436663882e-68
6.7924872429065e-60
3.9332647406814e-60
1.4510322979263e-60
1.4521825639056e-60
2.1209599075691e-61
2.1789162350235e-61
5.4866439187435e-62
5.695995540758e-62
0
0
0
0
0
0
0
1.0094173630641e-67
1.4589104840304e-65
1.0371359784221e-63
4.8413548706864e-62
1.6721882348752e-60
4.5669058713821e-59
1.0282497525372e-57
1.9616222935815e-56
3.229632185813e-55
4.6499919080308e-54
5.9209482754385e-53
6.7455924347459e-52
6.9685880128177e-51
6.6277163876244e-50
5.8948457043187e-49
4.9700343446215e-48
4.0078026800584e-47
3.1011946138773e-46
2.2992800100053e-45
1.6268002733397e-44
1.0933512167611e-43
6.9531680438907e-43
4.1728206249206e-42
2.3595287097703e-41
1.2562889909981e-40
6.2982739253493e-40
2.9744032031092e-39
1.3240636779613e-38
5.5601693099039e-38
2.2044404364226e-37
8.2585182866017e-37
2.9258405204448e-36
9.8102072998139e-36
3.1152980496085e-35
9.3758501184056e-35
2.6760242783409e-34
7.2477418837194e-34
1.8638189250617e-33
4.5534697607018e-33
1.0574660307352e-32
2.3357300956721e-32
4.9097036220391e-32
9.8264222363707e-32
1.8734292507275e-31
3.4032980476048e-31
5.8908737968157e-31
9.7114947805562e-31
1.5231724167999e-30
2.2681223962657e-30
3.1939032741817e-30
4.2162680854098e-30
5.1144000603026e-30
5.5640848058493e-30
5.5971327975553e-30
5.5280445372707e-30
5.2991171625533e-30
4.8157008236355e-30
4.0569042891345e-30
3.1036600695522e-30
2.1085967311853e-30
1.2407587251943e-30
6.1640689600901e-31
2.5404608111857e-31
8.7419333660909e-32
2.6248137709593e-32
7.3868073367186e-33
2.0720295076759e-33
5.9403983807125e-34
1.736534537656e-34
5.1284620047793e-35
1.5214011702503e-35
4.5271067444013e-36
1.351846390528e-36
4.0529681340138e-37
1.2195593596426e-37
3.6785846227279e-38
1.1102968063447e-38
3.347038619278e-39
1.0060562145916e-39
3.0114155745119e-40
8.968812235436e-41
2.6564014326053e-41
7.8221932375016e-42
2.2897246320954e-42
6.6625238014923e-43
1.9270821649809e-43
5.5411048579675e-44
1.5839358110628e-44
4.5040930402503e-45
1.2690096617053e-45
3.6578735511859e-46
8.2989729208962e-47
5.0061465792715e-47
0
0
0
0
0
0
9.0017718446743e-68
1.9502565307171e-65
1.874366114954e-63
1.1183494895909e-61
4.758327103598e-60
1.558388064549e-58
4.1253171394056e-57
9.1240731445514e-56
1.7248805082929e-54
2.8334005021718e-53
4.0964305212841e-52
5.2671862099357e-51
6.0748146679633e-50
6.3353046286326e-49
6.0322079321092e-48
5.3093410754543e-47
4.3805418550616e-46
3.4308441159944e-45
2.5723247222261e-44
1.8527222418144e-43
1.2812699325248e-42
8.4840186215677e-42
5.3591502088396e-41
3.217753837439e-40
1.8308453142342e-39
9.8494192640877e-39
5.0025049398218e-38
2.396803556153e-37
1.082984504615e-36
4.6152581405667e-36
1.8556705598154e-35
7.0429029525851e-35
2.5246635388542e-34
8.5533262548079e-34
2.7405691836205e-33
8.3105352641185e-33
2.3868409268605e-32
6.4977923689455e-32
1.6780915791545e-31
4.1147674008616e-31
9.5879677772689e-31
2.1247576754769e-30
4.4812180232287e-30
8.9994855983889e-30
1.7215437450328e-29
3.1372101159059e-29
5.4454569050065e-29
8.9987558486558e-29
1.4143752575762e-28
2.110677358745e-28
2.9804288132282e-28
3.9515497177861e-28
4.8305525505938e-28
5.311471535226e-28
5.3692125850394e-28
5.3137865174332e-28
5.1194785857656e-28
4.6943200023645e-28
4.0032987902099e-28
3.1130343103213e-28
2.1607569909047e-28
1.3076630322536e-28
6.7356300618558e-29
2.9010817199969e-29
1.047416783604e-29
3.286267577203e-30
9.554471116656e-31
2.7370347875494e-31
7.9671433865076e-32
2.363344223612e-32
7.094296456963e-33
2.1432292669309e-33
6.5042547552282e-34
1.9829566490112e-34
6.073707286051e-35
1.8676064772774e-35
5.7553572928673e-36
1.7735597036241e-36
5.4528303828172e-37
1.6694554593035e-37
5.0830096675764e-38
1.5378602090405e-38
4.6216988308487e-39
1.379511833674e-39
4.0897236793387e-40
1.2043102647599e-40
3.5229264730681e-41
1.0238840760247e-41
2.9567690977698e-42
8.4901390444656e-43
2.414336729637e-43
7.0235885060089e-44
1.6037254814337e-44
9.8061975208332e-45
0
0
0
0
0
4.1586389771276e-68
1.202554171944e-65
1.500563701865e-63
1.1204934181347e-61
5.8040590674944e-60
2.265419174913e-58
7.0239488991242e-57
1.7950378928824e-55
3.8822875846323e-54
7.2423916259562e-53
1.1823615521703e-51
1.7089844658628e-50
2.2068620872644e-49
2.5654856968088e-48
2.7031722508925e-47
2.5979577605124e-46
2.2930707022287e-45
1.8769925101077e-44
1.4445447197577e-43
1.0604403390985e-42
7.4948804880848e-42
5.1072781497664e-41
3.342319633613e-40
2.0899468747893e-39
1.243995672486e-38
7.0334099806086e-38
3.7728366747426e-37
1.9185501640984e-36
9.2416690785534e-36
4.2136613635128e-35
1.8170581045325e-34
7.4059221079691e-34
2.8512948407934e-33
1.036496403574e-32
3.5565386427506e-32
1.151744007354e-31
3.5201051608879e-31
1.0155641392574e-30
2.766865740803e-30
7.123559250435e-30
1.7349542751559e-29
4.0031459600091e-29
8.7676087209216e-29
1.8270615519713e-28
3.6319336369326e-28
6.9036896014573e-28
1.2569826635725e-27
2.1933607845681e-27
3.6644637169384e-27
5.8480361742296e-27
8.8837688964604e-27
1.2784605610628e-26
1.7292346744707e-26
2.1627155132073e-26
2.4369538769693e-26
2.4927227218673e-26
2.4740857487971e-26
2.3993154081218e-26
2.2258809837288e-26
1.9262345849543e-26
1.5256753796075e-26
1.0831664685994e-26
6.7422699233035e-27
3.596505457937e-27
1.6153568304001e-27
6.1059176667346e-28
2.0001943380005e-28
6.0141351101586e-29
1.762684894619e-29
5.2167362609526e-30
1.5713488500585e-30
4.7958249010415e-31
1.4758498577832e-31
4.5699062999904e-32
1.423321526406e-32
4.4573609977231e-33
1.4017869678547e-33
4.4171208286218e-34
1.390734010789e-34
4.3633811527077e-35
1.3612602330527e-35
4.2168838382525e-36
1.2962095716834e-36
3.9528470125603e-37
1.1959988196416e-37
3.5910047568509e-38
1.0701704554345e-38
3.1661299158974e-39
9.3011705839298e-40
2.7135869468289e-40
7.8683948589909e-41
2.2584662069407e-41
6.6313554076423e-42
1.5236885701634e-42
9.4479625222359e-43
0
0
0
0
0
3.0363585795767e-66
6.3243248321534e-64
6.3561499970612e-62
4.1052849851954e-60
1.9232743047105e-58
6.9937642812657e-57
2.0620404260014e-55
5.0850644787108e-54
1.0726605941864e-52
1.9678623141801e-51
3.1811119504217e-50
4.5779511170334e-49
5.9126150685541e-48
6.9004831569082e-47
7.3230750180335e-46
7.1012355024862e-45
6.3201281562259e-44
5.1920075795971e-43
3.971073039272e-42
2.8654033987056e-41
1.983806849347e-40
1.3375020908954e-39
8.8393850236677e-39
5.7132061347513e-38
3.5859570078775e-37
2.1683807228036e-36
1.254114888851e-35
6.8960367390952e-35
3.5880896605267e-34
1.7603169045908e-33
8.1225872072125e-33
3.5192152304764e-32
1.4301559413285e-31
5.4478021679744e-31
1.9443363722885e-30
6.4995181183169e-30
2.0341716813696e-29
5.9577722577463e-29
1.6319343884728e-28
4.1776058727334e-28
9.9872864018647e-28
2.2288179982408e-27
4.6445322973686e-27
9.052991577593e-27
1.6569356009175e-26
2.8662976116642e-26
4.7283639600273e-26
7.5116621553531e-26
1.1587369147113e-25
1.7429487921878e-25
2.5530941463825e-25
3.6173545503823e-25
4.8995410463021e-25
6.2245624876285e-25
7.2004917485213e-25
7.5016975868199e-25
7.4698221250789e-25
7.2936917571598e-25
6.8495581586564e-25
6.0219662599915e-25
4.8635760715623e-25
3.5343911961353e-25
2.2627700571187e-25
1.248752694306e-25
5.838008003188e-26
2.3056891237838e-26
7.8784556569929e-27
2.4515743510578e-27
7.3636583083506e-28
2.2190319186337e-28
6.7933066458942e-29
2.1091730947914e-29
6.614698488757e-30
2.091022019421e-30
6.6581689938484e-31
2.1337565000304e-31
6.86958251035e-32
2.2154125144044e-32
7.1324864375324e-33
2.2850975081134e-33
7.2676572174337e-34
2.291329302235e-34
7.1572198444638e-35
2.2150339923401e-35
6.7940832609409e-36
2.0661323739575e-36
6.2317771723535e-37
1.8647653981962e-37
5.537619882044e-38
1.6322980729219e-38
4.7799096911597e-39
1.3849192527585e-39
4.1047320593592e-40
9.4896662837136e-41
5.96998224868e-41
0
0
0
0
9.8926080625002e-77
1.074642151889e-64
1.9592894918422e-62
1.7651202510835e-60
1.0447407140285e-58
4.5669966876551e-57
1.5724534251988e-55
4.4420076968141e-54
1.059623759514e-52
2.1791928009879e-51
3.9237698529988e-50
6.2624457297711e-49
8.9423707735274e-48
1.1510534142804e-46
1.3441431992595e-45
1.4314734224078e-44
1.3966915623294e-43
1.2537096668882e-42
1.0385959952693e-41
7.9645642010566e-41
5.6985660279975e-40
3.8747763392544e-39
2.5763068947052e-38
1.7229674429863e-37
1.1743727207619e-36
8.0981641111074e-36
5.5356727925994e-35
3.6682537500772e-34
2.3146007841093e-33
1.3738010252897e-32
7.6122121371728e-32
3.9204709991425e-31
1.8723451155477e-30
8.2825184864866e-30
3.3923460791135e-29
1.2865047586052e-28
4.5181230875786e-28
1.4694695146895e-27
4.4256183231495e-27
1.2339742966832e-26
3.1842332900435e-26
7.5991491809825e-26
1.6749062420764e-25
3.401266237407e-25
6.3418994435053e-25
1.0820496424511e-24
1.6884769301608e-24
2.425328294375e-24
3.2589135379014e-24
4.1937131636909e-24
5.2942804256046e-24
6.6741185757267e-24
8.4571350050426e-24
1.0698811300685e-23
1.3234793773169e-23
1.5441386445486e-23
1.6412385642139e-23
1.64146202452e-23
1.6145004595378e-23
1.533217176432e-23
1.3708205246148e-23
1.1297858883706e-23
8.4103675629784e-24
5.5399853653455e-24
3.162034266682e-24
1.5371048675688e-24
6.3346308162793e-25
2.2562104110125e-25
7.2700044318374e-26
2.2411148161486e-26
6.8867341552397e-27
2.1449690920514e-27
6.7794206535094e-28
2.16804607965e-28
7.0015294524602e-29
2.2810956408595e-29
7.4878406879219e-30
2.4703401774253e-30
8.1615309407393e-31
2.6891906281704e-31
8.8041847184943e-32
2.8562634026719e-32
9.1688354677009e-33
2.9111837342816e-33
9.1452054393501e-34
2.844046522786e-34
8.761070534027e-35
2.6746957047071e-35
8.0959733430002e-36
2.4305503650799e-36
7.2393316161728e-37
2.1411375609119e-37
6.2628664437076e-38
1.8739718559579e-38
4.3586366017887e-39
2.7835031588781e-39
0
0
0
0
1.8936307828164e-75
2.4640288884111e-63
4.1911368844266e-61
3.5469422926637e-59
1.9874357731144e-57
8.2858913625435e-56
2.7395885735468e-54
7.4781310829524e-53
1.7333471081591e-51
3.4812619902325e-50
6.1503266052453e-49
9.6751595570415e-48
1.3673309882456e-46
1.748763398181e-45
2.0368967166204e-44
2.1698806866121e-43
2.1234089293073e-42
1.9174116312879e-41
1.6018421843215e-40
1.2380091976209e-39
8.8601216612323e-39
5.9488771056946e-38
3.8871525886496e-37
2.6047237074864e-36
1.854537000086e-35
1.3923904182816e-34
1.0594556520325e-33
7.8267626990932e-33
5.4480038635542e-32
3.5154038624913e-31
2.0878373233244e-30
1.1388135592394e-29
5.7053540914984e-29
2.6278565127683e-28
1.1141185677815e-27
4.3529195112527e-27
1.5688404558192e-26
5.2196011690357e-26
1.6037878693574e-25
4.5516784137249e-25
1.1930093148697e-24
2.8864446570445e-24
6.4366957198586e-24
1.3194322598998e-23
2.4784968648181e-23
4.2480583904778e-23
6.5941694832047e-23
9.1918401675338e-23
1.152294659881e-22
1.3300712391098e-22
1.4691868219428e-22
1.606515619341e-22
1.7768785766105e-22
2.0069967336914e-22
2.3027886902646e-22
2.6118641444224e-22
2.7954504096538e-22
2.8116827450975e-22
2.7791434395997e-22
2.6658397176959e-22
2.4223879713976e-22
2.0379369215375e-22
1.5549225787268e-22
1.0538474104952e-22
6.2154885873802e-23
3.1362651878553e-23
1.3461549418289e-23
4.9929773858859e-24
1.6671051646031e-24
5.2842281620004e-25
1.6590539964358e-25
5.2648984278796e-26
1.6956523557274e-26
5.5340808743234e-27
1.8272938912603e-27
6.0970459997591e-28
2.0521193425818e-28
6.9451709437406e-29
2.3531208325354e-29
7.9428871730824e-30
2.6596002743021e-30
8.8073934629605e-31
2.8802049719532e-31
9.2994285481899e-32
2.9662018140491e-32
9.3548640931597e-33
2.9196621999432e-33
9.0236992526776e-34
2.7633036052901e-34
8.3881431111022e-35
2.524882283272e-35
7.5435570636993e-36
2.2278621037451e-36
6.7309904416277e-37
1.5748364837651e-37
1.0215637015904e-37
0
0
0
0
1.5858580327282e-75
4.1233633334613e-62
6.7351984051482e-60
5.4857668602391e-58
2.9666993534951e-56
1.1973931308767e-54
3.8444382701347e-53
1.02214183875e-51
2.3143532565636e-50
4.5534659981604e-49
7.9035860077678e-48
1.2251884737357e-46
1.7113886608878e-45
2.1700995274962e-44
2.5143393243741e-43
2.6720006664562e-42
2.6149594498455e-41
2.3675027918007e-40
1.9891102099233e-39
1.5508474921452e-38
1.1175685845605e-37
7.4660864064256e-37
4.7857266659005e-36
3.1633444288281e-35
2.2945260138372e-34
1.8174423737578e-33
1.4833687976845e-32
1.1765719140973e-31
8.7442561848672e-31
5.9790416531253e-30
3.7326943096599e-29
2.1238879987573e-28
1.1029683276326e-27
5.2421228713065e-27
2.2868923624124e-26
9.1808410497732e-26
3.3980699677653e-25
1.1609244070956e-24
3.6629939271251e-24
1.0674401322114e-23
2.8716734386614e-23
7.1258107922065e-23
1.6282831510016e-22
3.4180063415653e-22
6.5698635707638e-22
1.1508239859749e-21
1.821435765998e-21
2.5687022505629e-21
3.1836690858366e-21
3.493415288139e-21
3.5529033909339e-21
3.5323252263913e-21
3.4932546554816e-21
3.5147491658267e-21
3.6041630313436e-21
3.7716591060773e-21
3.9345747221251e-21
3.9650603364036e-21
3.9308109923227e-21
3.7956900997067e-21
3.4861119266678e-21
2.9768771655528e-21
2.3164458284416e-21
1.6100286932658e-21
9.7979905151836e-22
5.1320256562398e-22
2.2964408175391e-22
8.8832057176019e-23
3.0788195516272e-23
1.0052035692235e-23
3.2292188050108e-24
1.0452634550386e-24
3.4334165097793e-25
1.144512317673e-25
3.8671843999274e-26
1.3227502617164e-26
4.5695952156071e-27
1.5882002123507e-27
5.5243519990047e-28
1.912276383334e-28
6.5550385436436e-29
2.2176592514841e-29
7.3932946899211e-30
2.4288106987083e-30
7.8695202193275e-31
2.5178179387819e-31
7.9636066721973e-32
2.4922657141132e-32
7.7228167322806e-33
2.3708148908174e-33
7.2133020870259e-34
2.1773851994894e-34
6.4938601233457e-35
1.9814263641337e-35
4.6627999591163e-36
3.0744506872564e-36
0
0
0
0
-2.4545467326489e-92
5.3772136948037e-61
8.5665335306212e-59
6.809100834393e-57
3.5970452431276e-55
1.4198395724878e-53
4.4639816813824e-52
1.1637988166344e-50
2.5873419670701e-49
5.0053395546757e-48
8.5556761747734e-47
1.3082826703175e-45
1.8061402452318e-44
2.2683383495751e-43
2.6093332694904e-42
2.7601925176971e-41
2.6951286641819e-40
2.4395314689013e-39
2.0541484514657e-38
1.6115743959423e-37
1.1727281552771e-36
7.863109386385e-36
4.9600122849571e-35
3.1846377722937e-34
2.2816826785097e-33
1.8424522229562e-32
1.5638912247351e-31
1.2977962577638e-30
1.0086473182242e-29
7.2012415208666e-29
4.6904933977336e-28
2.7826121470109e-27
1.5042201855126e-26
7.4219904406906e-26
3.3509567169525e-25
1.3882955258092e-24
5.291368587725e-24
1.8589028997949e-23
6.0264499394593e-23
1.8038802189124e-22
4.9850139742421e-22
1.2710344099647e-21
2.986089988414e-21
6.450965598526e-21
1.2778004723937e-20
2.3103062532008e-20
3.7843308466946e-20
5.5325875355547e-20
7.0221549464488e-20
7.6301792108072e-20
7.6210975551429e-20
7.4398412257203e-20
6.9824271782884e-20
6.2550650068208e-20
5.5182687373812e-20
5.0630334765128e-20
4.8879113013804e-20
4.7978873600161e-20
4.6889275646782e-20
4.4912108121334e-20
4.134111327952e-20
3.5754993648531e-20
2.840653867405e-20
2.0285290821287e-20
1.2754603561725e-20
6.9386898744422e-21
3.2375596666885e-21
1.3067461858471e-21
4.7066384986612e-22
1.5853075594255e-22
5.2186047202617e-23
1.7248521324853e-23
5.7830886117559e-24
1.9704226941901e-24
6.818436377487e-25
2.3928571252589e-25
8.4927491581024e-26
3.034373821477e-26
1.0847464020749e-26
3.8548829973598e-27
1.3542351881922e-27
4.6853831179143e-28
1.5938510158698e-28
5.3315437171559e-29
1.7558055115551e-29
5.7015241189261e-30
1.8281911397845e-30
5.7951497940048e-31
1.8175766138182e-31
5.6441598497209e-32
1.7361651837572e-32
5.296001087327e-33
1.5953431378277e-33
4.9170894803014e-34
1.1636606511415e-34
7.8049812723592e-35
0
0
0
0
0
5.6970214017056e-60
8.9340120361362e-58
6.98962612503e-56
3.6350761317191e-54
1.4130507001583e-52
4.3770548827636e-51
1.1248666812508e-49
2.466383394734e-48
4.7083772344214e-47
7.9472987793499e-46
1.2009422537362e-44
1.6401087390998e-43
2.0401726029165e-42
2.3279366949274e-41
2.4475404172626e-40
2.380112566617e-39
2.1493094510013e-38
1.8086443912002e-37
1.4223108053901e-36
1.04349925704e-35
7.0676576345027e-35
4.4301700416981e-34
2.7425063366916e-33
1.8802735961609e-32
1.4938453490505e-31
1.2852794671676e-30
1.096175351319e-29
8.7993259981592e-29
6.5051141026656e-28
4.396600575177e-27
2.7130073151823e-26
1.5294929176363e-25
7.8853536082879e-25
3.7202488756963e-24
1.6076618896017e-23
6.3742285881673e-23
2.3240671570695e-22
7.8085569392316e-22
2.4209905646874e-21
6.9298269327116e-21
1.8303314368962e-20
4.4541252803824e-20
9.9635049674734e-20
2.04197749427e-19
3.8156855512864e-19
6.4544036016201e-19
9.7328601838204e-19
1.2670797035548e-18
1.3905913431839e-18
1.3877917797524e-18
1.3469719957711e-18
1.2397534983713e-18
1.0545826167239e-18
8.3869343345105e-19
6.6120631795206e-19
5.5784507343852e-19
5.0873686627959e-19
4.7993189225075e-19
4.5199811997559e-19
4.1465525047617e-19
3.618091555456e-19
2.9298104396682e-19
2.149832651116e-19
1.3981621219914e-19
7.9105855223911e-20
3.8531024206887e-20
1.624161733479e-20
6.084610227455e-21
2.1162967561174e-21
7.1448189478694e-22
2.4130220389444e-22
8.2629736328204e-23
2.8794204141043e-23
1.0211194796991e-23
3.679536714165e-24
1.3428694187537e-24
4.937058002986e-25
1.815829374312e-25
6.6324938705738e-26
2.3908295750705e-26
8.4695212259433e-27
2.9431416607234e-27
1.0034349467801e-27
3.3614228272814e-28
1.1085093474655e-28
3.6050838117444e-29
1.1579074941195e-29
3.6768778690426e-30
1.1552770370845e-30
3.5936837424579e-31
1.1080345987309e-31
3.3720168038288e-32
1.0500909410999e-32
2.4987479815585e-33
1.7063150407947e-33
0
0
0
1.2202989736399e-87
2.6534894382947e-73
5.0466470162505e-59
7.8362028009129e-57
6.0683853000204e-55
3.1233229145983e-53
1.201488458056e-51
3.6831109945161e-50
9.3679408641881e-49
2.0330627746714e-47
3.8420417437361e-46
6.4208644434566e-45
9.6086269076968e-44
1.3000173213747e-42
1.6029660276014e-41
1.8142979186528e-40
1.8945216051879e-39
1.8325818486852e-38
1.6484295496543e-37
1.3836167730294e-36
1.0871002211398e-35
8.0067490225865e-35
5.4830427510796e-34
3.4565622709732e-33
2.0782996555691e-32
1.3325767127133e-31
1.0005588602171e-30
8.4741153575607e-30
7.3161395070425e-29
6.0185694308835e-28
4.5844683517203e-27
3.203151826784e-26
2.049655260743e-25
1.2025117477212e-24
6.4756058793346e-24
3.204957383341e-23
1.459723387853e-22
6.1189563615802e-22
2.3601534507174e-21
8.3804084735966e-21
2.7415307283939e-20
8.2637111104256e-20
2.2927224743269e-19
5.8424149354398e-19
1.3630002651802e-18
2.8994741170908e-18
5.5941945587194e-18
9.7105691582524e-18
1.4928945576243e-17
1.9631828285176e-17
2.1536248179184e-17
2.1453852126641e-17
2.0694806986106e-17
1.8755926844438e-17
1.5410947377804e-17
1.1446861565678e-17
8.0208740454867e-18
5.859781639501e-18
4.8014528545051e-18
4.2890170393134e-18
3.9410095065655e-18
3.5867781628127e-18
3.1453368284666e-18
2.5888747015996e-18
1.9493525887635e-18
1.3111289706087e-18
7.7194378558026e-19
3.9284461295018e-19
1.7310088014351e-19
6.7522417163193e-20
2.4277693543305e-20
8.4136598212216e-21
2.9052527608968e-21
1.0164775895776e-21
3.6240816677892e-22
1.3177049471799e-22
4.8784566921993e-23
1.8321475820877e-23
6.9375139426806e-24
2.6279918417678e-24
9.8782524564374e-25
3.658745794312e-25
1.3289764166732e-25
4.7240439407072e-26
1.6435937467018e-26
5.6062875957613e-27
1.8790188135135e-27
6.2016275536084e-28
2.0191623127797e-28
6.4939140315601e-29
2.0651145548929e-29
6.4979635370864e-30
2.0256131663256e-30
6.2290606681848e-31
1.9604467595948e-31
4.6896856738292e-32
3.2634091634624e-32
0
0
0
1.3548456327227e-84
5.9805320840425e-72
3.816779870794e-58
5.8915205463443e-56
4.5334828535735e-54
2.3177294873563e-52
8.8539947178546e-51
2.6948209294521e-49
6.8045673716399e-48
1.4658591195263e-46
2.7494261723933e-45
4.5601601139653e-44
6.7717864252393e-43
9.0918058408234e-42
1.1125821315712e-40
1.2499051282575e-39
1.2962417374313e-38
1.2464611035363e-37
1.1157032241262e-36
9.3285466788128e-36
7.3079368306616e-35
5.3808734275066e-34
3.7105399227493e-33
2.3677747924024e-32
1.4088873352081e-31
8.4522630827261e-31
5.7737679882838e-30
4.6148816016615e-29
3.9451932848136e-28
3.2987224694798e-27
2.5817731408473e-26
1.8618014032395e-25
1.2325793726707e-24
7.4987765567215e-24
4.2065919443853e-23
2.1823878466026e-22
1.0485117225501e-21
4.6743825095489e-21
1.933482900826e-20
7.3853563255507e-20
2.5910795171738e-19
8.323349188062e-19
2.4439685445001e-18
6.5481798116556e-18
1.5968724518771e-17
3.5307588087877e-17
7.040635725281e-17
1.2554263330237e-16
1.9664657539973e-16
2.6059595149568e-16
2.848385187312e-16
2.8300994034048e-16
2.7089693457086e-16
2.4121677651835e-16
1.9155943920183e-16
1.3419953616563e-16
8.5397534731031e-17
5.4759386229962e-17
3.9980227190534e-17
3.348792594466e-17
2.9925847042147e-17
2.6992228094771e-17
2.3755645022347e-17
1.9836867495401e-17
1.5299192149908e-17
1.0626747546503e-17
6.5049662680999e-18
3.4581001205262e-18
1.5940810453297e-18
6.4859870796507e-19
2.4163214924278e-19
8.6132528374595e-20
3.0445157871742e-20
1.0889164463647e-20
3.972992216395e-21
1.4814334748872e-21
5.6371740806105e-22
2.1799084816241e-22
8.5084794074848e-23
3.3231511674772e-23
1.2871469560562e-23
4.9058779375522e-24
1.8301428186962e-24
6.6654876163507e-25
2.3700642725062e-25
8.2419386455666e-26
2.8102607448596e-26
9.4196074063148e-27
3.1105388161566e-27
1.0136237973587e-27
3.2635427293174e-28
1.0390305714656e-28
3.2755899534264e-29
1.0180990178372e-29
3.2391905066745e-30
7.7878708852897e-31
5.5280589343183e-31
0
0
0
6.449214919437e-85
8.0688785737778e-71
2.5034805756591e-57
3.8523805834818e-55
2.9538106105774e-53
1.5041073262851e-51
5.720871548296e-50
1.7331321969784e-48
4.3548754110044e-47
9.3332925901404e-46
1.741218426992e-44
2.8718913915775e-43
4.2398575287017e-42
5.6580813442919e-41
6.8810303438028e-40
7.6808040270945e-39
7.9150618076476e-38
7.5658350102587e-37
6.7355589161497e-36
5.6050965999834e-35
4.3729297270446e-34
3.2100387357156e-33
2.2172231222807e-32
1.4296316169787e-31
8.5553500102388e-31
4.9248287147929e-30
3.0258995926062e-29
2.1688753119814e-28
1.7608427826817e-27
1.4689631491554e-26
1.174887939662e-25
8.7434142203729e-25
5.9906314014298e-24
3.7759945513999e-23
2.2012396218928e-22
1.1930375210878e-21
6.0370535739827e-21
2.8527389102482e-20
1.2569015106509e-19
5.1664767955694e-19
1.9675907972657e-18
6.8538711895e-18
2.1626302334332e-17
6.1543333491153e-17
1.5761902656638e-16
3.6242438877409e-16
7.4490421797665e-16
1.3577445940226e-15
2.1555394931311e-15
2.8645159949682e-15
3.1178022740197e-15
3.0901858832471e-15
2.9377306826687e-15
2.5756838276299e-15
1.9866304152192e-15
1.3260168556717e-15
7.8012647645956e-16
4.4665906232066e-16
2.909877693778e-16
2.2752666513535e-16
1.976380051598e-16
1.7688049514273e-16
1.5632811955917e-16
1.3236823293098e-16
1.0442749844034e-16
7.4778872490189e-17
4.7516176013376e-17
2.6365476130329e-17
1.2722272977167e-17