/*--------------------------------*- C++ -*----------------------------------*\
  =========                 |
  \\      /  F ield         | OpenFOAM: The Open Source CFD Toolbox
   \\    /   O peration     | Website:  https://openfoam.org
    \\  /    A nd           | Version:  7
     \\/     M anipulation  |
\*---------------------------------------------------------------------------*/
FoamFile
{
    version     2.0;
    format      ascii;
    class       surfaceScalarField;
    location    "3.2";
    object      alphaPhi0.water;
}
// * * * * * * * * * * * * * * * * * * * * * * * * * * * * * * * * * * * * * //

dimensions      [0 3 -1 0 0 0 0];

internalField   nonuniform List<scalar> 
11840
(
0
0
0
0
0
0
0
0
0
0
0
0
0
0
0
0
0
0
0
0
0
0
0
0
0
0
0
0
0
0
0
0
0
0
0
0
0
0
0
0
0
0
0
0
0
0
0
0
0
0
0
0
0
0
0
0
0
0
0
0
0
0
0
0
0
0
0
0
0
0
0
0
0
0
0
0
0
0
0
0
0
0
0
0
0
0
0
0
0
0
0
0
0
0
0
0
0
0
0
0
0
0
0
0
0
0
0
0
0
0
0
0
0
0
0
0
0
0
0
0
0
0
0
0
0
0
0
0
0
0
0
0
0
0
0
0
0
0
0
0
0
0
0
0
0
0
0
0
0
0
0
0
0
0
0
0
0
0
0
0
0
0
0
0
0
0
0
0
0
0
0
0
0
0
0
0
0
0
0
0
0
0
0
0
0
0
0
0
0
0
0
0
0
0
0
0
0
0
0
0
0
0
0
0
0
0
0
0
0
0
0
0
0
0
0
0
0
0
0
0
0
0
0
0
0
0
0
0
0
0
0
0
0
0
0
0
0
3.222685038698e-212
1.5825653579643e-212
1.0563014031715e-211
5.2815070158575e-212
2.27131667901e-211
1.1356583394915e-211
3.686578985831e-211
1.861126220776e-211
6.7028708833314e-212
3.0162918974981e-211
1.2099611311222e-192
-4.2229347275309e-210
4.5228023249152e-192
1.9014988725565e-192
8.223276954392e-193
3.7004746294752e-192
1.495141264435e-193
6.7281356899397e-193
1.2251724441957e-192
5.5132759988773e-192
2.6187347785464e-192
0
8.5455762534059e-192
-4.2118088836863e-213
1.5537411369829e-192
6.9918351164229e-192
1.9239410738811e-192
9.6197053694055e-193
6.5457188357619e-192
0
2.0867506295465e-191
-3.7250844952892e-217
5.9442645869952e-191
0
1.0807753794537e-191
4.8634892075415e-191
1.9650461444613e-192
8.8427076500756e-192
5.0382638792775e-192
0
1.1602216787763e-191
0
2.1094939614116e-192
9.4927228263518e-192
4.4159284946562e-192
0
8.028960899375e-193
3.6130324047187e-192
7.6303344994745e-193
3.8151672497373e-193
1.387333545359e-193
6.2430009541154e-193
2.0400363286803e-193
1.7462095804531e-194
3.3065578479738e-193
0
6.0119233599525e-194
2.7053655119786e-193
9.2115078273688e-194
0
1.6748196049762e-194
7.5366882223926e-194
1.8369354712868e-194
2.4978865494262e-195
2.7576294108832e-194
0
5.0138716561513e-195
2.256242245268e-194
7.4996010624213e-195
-3.4590552454029e-195
1.3635638295312e-195
6.1360372328901e-195
2.4792081629238e-196
1.1156436733157e-195
2.940365530244e-196
0
5.3461191458983e-197
2.4057536156542e-196
6.2932615341074e-197
0
1.1442293698379e-197
5.1490321642696e-197
1.2785871234568e-197
0
2.3247038608501e-198
1.046116737372e-197
1.695249774932e-198
8.4762488746599e-199
3.0822723181517e-199
1.3870225431275e-198
2.1193215333764e-199
1.0596607666882e-199
1.407600434941e-199
7.0380021747051e-200
2.5592735613502e-200
1.1516730787725e-199
1.6731995522195e-200
8.3659977610972e-201
1.5715011352455e-200
0
9.9720575646808e-201
4.9860287823404e-201
8.8693496812581e-201
0
1.6126257648519e-201
7.2567213020052e-201
1.3823077402486e-201
0
2.5133256540182e-202
1.130976612603e-201
1.5022937858495e-202
7.5114689292477e-203
2.7321462367756e-203
1.2291148519784e-202
2.2047524351704e-203
0
5.9440216217028e-204
0
3.3257748232742e-204
6.8543407943089e-204
4.0745538931651e-204
0
1.3212857798199e-204
3.1043112138778e-204
1.2555680473394e-204
0
7.6905277853689e-205
3.8452638926845e-205
6.1543888796413e-205
0
4.6349047222442e-205
0
2.5084855833416e-205
1.3197046491606e-205
1.7571132311431e-205
0
9.1893761990646e-206
4.5946880995324e-206
6.0921901674079e-206
0
3.0819389166229e-206
1.5415488023355e-206
1.5416009316921e-206
7.7080046584605e-207
9.6706811267146e-207
0
4.7241501311297e-207
2.3620750655649e-207
2.8738173601816e-207
0
1.3752901255179e-207
6.8764538081679e-208
8.1376665226032e-208
0
4.7410076199485e-208
0
2.2383270552784e-208
1.1191635276392e-208
1.2817474418554e-208
0
5.2729306048281e-209
0
0
0
0
0
0
0
0
0
0
0
0
0
0
0
0
0
0
0
0
0
0
0
0
0
0
0
0
0
0
0
0
0
0
0
0
0
0
4.4577425637788e-157
2.2288712818894e-157
2.4487601396584e-153
1.2243800698292e-153
2.2261455815145e-153
2.2261455815272e-154
0
7.5234968304185e-143
2.1283463677528e-126
0
1.2153650810586e-126
1.0394945698459e-127
1.0652049228318e-126
0
5.6277814206502e-126
2.73503026299e-126
6.456882462069e-127
1.9367071280498e-125
1.1288370144097e-126
4.6744077139902e-127
3.6909120124674e-126
1.205254825886e-126
7.8669053967837e-126
2.9312021702212e-126
1.2135763663521e-125
5.9317425374187e-126
4.0962954236384e-127
1.104423104064e-125
5.0102345298157e-127
3.027112239751e-127
5.8093239501572e-127
1.7477415402921e-127
1.3457176670474e-126
0
4.5618422632545e-125
0
6.0033751844277e-126
1.1078146941459e-124
5.3556425544358e-126
1.4001050543944e-126
2.1208472448207e-124
0
1.9381135673603e-124
1.8338769344999e-125
2.1141250196145e-122
0
2.1142915730756e-122
0
4.0993431722272e-124
2.0732981413533e-122
3.6396636731438e-124
0
3.6396636731438e-124
0
4.609722286848e-124
0
5.8906307359192e-124
0
7.5495906382318e-124
0
6.4068389604463e-124
3.416552877126e-124
3.4139744574454e-124
1.0343346356935e-126
1.5019365618347e-123
0
1.628247104527e-123
0
9.3678892087647e-124
4.6907853179695e-124
7.6834675833708e-124
0
1.171922904721e-124
6.5115446786497e-124
8.9469617905447e-125
0
2.7851228397818e-126
8.6684495065666e-125
2.7846645968567e-126
0
7.4910322571627e-128
2.7097542742851e-126
7.4895168042736e-128
0
5.452464860636e-128
0
1.9643887786565e-129
5.2560259827704e-128
1.8653012833695e-129
0
3.3914568788537e-130
1.5261555954841e-129
4.916314235039e-131
2.8998254553498e-130
3.464389695324e-131
0
1.0784786280503e-132
3.356541832519e-131
1.078238628957e-132
0
2.1380261993645e-134
1.0568583669634e-132
1.6843669282001e-134
0
1.6843669282001e-134
0
3.2317626443476e-135
0
3.2309153929494e-135
0
5.8743916235444e-136
2.6434762305949e-135
2.2854736880121e-137
5.6458442547432e-136
6.6969459738937e-138
0
6.6951044706244e-138
0
2.5961866460898e-139
6.4354858060154e-138
2.4159131242025e-139
0
3.352004779527e-140
2.0807126462498e-139
2.1841189550041e-140
0
5.4374714024904e-142
2.1297442409792e-140
5.4355409050495e-142
0
3.3220250016238e-142
0
1.6997739332532e-142
0
1.0376901678567e-142
0
2.6007668935014e-144
1.0116824989217e-142
2.5997006710589e-144
0
1.5723447777361e-144
0
2.1296058689241e-145
1.3593841908436e-144
1.3232645138092e-145
0
3.8711725613026e-147
5.8400098676778e-146
2.6622951691452e-147
0
1.3653566458443e-147
0
6.3568743075163e-148
0
4.0114427343264e-148
0
1.1838872531147e-149
3.8930540090149e-148
1.0964337662034e-149
0
0
0
0
0
0
0
0
0
0
0
0
0
0
0
0
0
0
0
0
0
0
0
0
0
0
0
0
0
0
0
0
0
0
0
0
-4.6241803566553e-95
-2.3120901783276e-95
-1.0352085738901e-93
-5.1760428694504e-94
-1.4057197225236e-92
-7.028598612618e-93
-1.3626858419118e-91
-6.8134292095591e-92
-9.8348831828037e-91
-4.9174415914019e-91
-5.6410858913379e-90
-2.8205429456689e-90
5.5617064568003e-77
4.8362543908529e-77
5.9011028095534e-78
4.3136406268771e-77
1.8445692429891e-77
0
3.1515440242216e-78
1.5293469500306e-77
5.6230834544635e-79
2.6346077861165e-78
1.0177551573882e-79
4.6053282970752e-79
1.8708987304321e-80
8.3066528316431e-80
3.3077352123516e-81
1.5373109847721e-80
6.023736798429e-82
2.7053615325087e-81
1.095224934051e-82
4.9285118643771e-82
1.3777373797027e-83
9.5745119608161e-83
6.1358068221942e-84
7.6415669748329e-84
6.4568588868555e-70
3.1296426896425e-70
1.0999055149024e-67
9.5326598072667e-68
1.7936764257869e-68
8.7537265156223e-68
1.8625415914992e-69
1.607422266637e-68
3.6698836783086e-69
5.7307995263229e-69
1.5511857875854e-69
2.7006025583648e-69
4.5101071842693e-68
3.5608379046599e-68
7.243339610393e-68
7.6577474903884e-68
7.2940811403503e-68
7.7240305351439e-68
4.9658472046365e-68
6.0042774564252e-68
2.4538350959962e-68
3.1665667954131e-68
2.3817665913045e-68
2.6039786288723e-68
5.5026749310501e-68
4.4858211884876e-68
3.7280421935137e-67
3.5194570735413e-67
3.3902227584017e-68
3.3890199176735e-67
4.4755212060687e-67
1.8445544416788e-66
1.4618196540164e-65
8.9518979638072e-66
6.0130462815477e-65
6.0439288701761e-65
5.4694556516868e-66
5.466100716379e-65
2.1640607111729e-64
2.0966213582638e-64
9.6919873639356e-64
7.2014385783842e-64
3.8021867018218e-63
2.461251159701e-63
8.5534440888131e-63
6.6043572785308e-63
2.2446521614023e-62
1.5881147143428e-62
4.7116022115122e-62
3.8089013283106e-62
9.3838989568106e-62
7.5246059830884e-62
2.2615036310929e-61
1.6612073218442e-61
4.3452754932151e-61
3.516307015381e-61
9.6169476425455e-61
7.1476921219135e-61
1.7722332013953e-60
1.4943081222444e-60
2.9671659222823e-60
2.5135622950828e-60
5.2749749794662e-60
4.3810173413256e-60
6.8777315379043e-60
6.3596417475074e-60
8.3835375145352e-60
8.1448044666406e-60
8.4498574062227e-60
8.9361505873104e-60
8.2704089784674e-60
8.8005217294362e-60
8.5804021742055e-60
8.5803922090789e-60
8.0563771538044e-60
8.7424949538234e-60
7.6815795822452e-60
7.9177935537274e-60
6.1606042080071e-60
7.2201691641772e-60
4.2072718938996e-60
5.4000582813768e-60
2.4249106189847e-60
3.3076536846382e-60
8.6841082962597e-61
1.6870214949138e-60
1.5212241936408e-61
5.0741716691874e-61
2.4783421204646e-62
1.0117826251611e-61
4.6062834233262e-63
1.954418124527e-62
7.6215358031083e-64
3.7547071628027e-63
2.0167628284765e-64
5.0571404035588e-64
4.8927678711005e-65
1.3144325087589e-64
8.4092456464738e-66
3.8520978129923e-65
1.9837055985465e-66
5.6350011545842e-66
4.054422361253e-67
1.4661556089269e-66
6.6334251913627e-68
3.2939723065732e-67
1.7242488653131e-68
4.3939692697766e-68
4.1261525536809e-69
1.1233655966031e-68
7.6540657792524e-70
3.239527606496e-69
1.2529353419326e-70
6.2308356321287e-70
3.2346805073834e-71
8.3187339510374e-71
8.3212512803085e-72
2.0644095600528e-71
2.114674137779e-72
5.2281150118924e-72
5.3260008714957e-73
1.322150425028e-72
1.3381425519108e-73
3.3237089211788e-73
3.2773299383388e-74
8.3984839241213e-74
9.6878080639797e-75
1.9463365458248e-74
7.8882871534339e-75
0
0
0
0
0
0
0
0
0
0
0
0
0
0
0
0
0
0
5.2988753098013e-79
2.6616941367068e-79
5.0016713312779e-77
2.5681806240712e-77
1.9659436899952e-75
1.0128498481415e-75
5.6524950175935e-74
2.9481806766639e-74
1.1374131044102e-72
6.0630601332457e-73
1.7537145031081e-71
9.3754577462978e-72
3.2518438569045e-70
1.7296347040559e-70
4.846952377976e-69
2.6232491155545e-69
7.1522285001327e-68
3.8529378890266e-68
8.1230206921171e-67
4.5307953130647e-67
6.8382818095784e-66
3.7596513543368e-66
8.7066403394211e-65
4.7976356035451e-65
7.6492402418965e-64
4.3527682546563e-64
5.2975800169906e-63
3.0340238061252e-63
3.1556408672951e-62
1.8322647522218e-62
2.355411321214e-61
1.3306556887114e-61
1.9315671858968e-60
1.2574380245828e-60
3.0331539702236e-60
3.1115076389306e-60
9.998848034177e-61
1.8420125222469e-60
2.1643440072859e-61
7.8345040268911e-61
1.1743632988291e-61
9.8998070845687e-62
2.1491801793693e-58
1.0514406613474e-58
3.8956663884599e-59
1.7596135405233e-58
1.629554254097e-59
2.2661121343628e-59
3.6101495459391e-57
1.6313261169996e-57
2.2764352735445e-57
1.3337142723946e-57
7.095333599862e-55
2.7406278765594e-55
1.9362446269762e-53
1.1380130992189e-53
5.1695804878804e-53
4.0300280394359e-53
1.7472168393727e-52
1.6788303335267e-52
1.235151482284e-52
2.0045735325691e-52
5.0485433264028e-53
6.0137205977074e-53
3.6045567982427e-54
2.6727647100922e-53
3.2850582111258e-54
1.9234475473835e-55
2.9867055915586e-55
2.9863876519701e-54
1.2139947983559e-54
0
2.0775060515967e-55
5.3882373607528e-55
6.954610892752e-56
3.7375291682657e-55
6.9546108927629e-56
3.7651982587777e-68
3.7041863803299e-55
0
1.123446475758e-50
0
2.1894253918466e-51
9.2031413785774e-51
7.23528768489e-52
1.6188950248245e-51
7.2352876848917e-52
2.2393364162672e-66
2.9636674797799e-49
4.3790577010151e-49
2.1607232339998e-49
0
3.9694579441953e-50
1.7637774395803e-49
6.2964040604461e-50
0
1.1462753405572e-50
5.1501287198908e-50
1.5421772509565e-50
0
1.1041073996722e-51
1.4317665109999e-50
1.1041073998567e-51
0
1.3580345134368e-51
0
2.469173805278e-52
1.1111171338669e-51
2.9148141747683e-52
0
5.2996997598573e-53
2.3848442385217e-52
9.6358251278068e-54
4.3361178473833e-53
1.124701519225e-53
0
2.0449196779355e-54
9.2021103541451e-54
2.3434683411597e-54
0
3.7068813358556e-55
1.9727988122678e-54
3.7070618477169e-55
0
5.9909879755673e-55
0
5.9913816363161e-55
0
6.275367663881e-55
0
1.0738856512403e-55
5.2016061189407e-55
1.9533774149303e-56
8.7863899946716e-56
1.7304514129599e-56
0
1.7305897333495e-56
0
5.7234188662956e-58
1.6733910263017e-56
5.7242405834298e-58
0
6.0249593109282e-59
5.121906108628e-58
6.0252724063141e-59
0
6.7307165381204e-59
0
5.9483146218346e-59
0
5.9483177397192e-59
0
2.6219771984063e-59
0
2.6072666931672e-59
0
5.5142899131976e-61
2.5521238206502e-59
4.9055771494295e-61
0
4.2246806187694e-61
0
2.5581509295791e-62
3.9688655518366e-61
2.5581509798977e-62
0
1.8831622301651e-62
0
1.330781320607e-62
0
8.1406655558788e-63
3.1115076389306e-63
2.7250881852555e-63
3.1115076389306e-63
1.4408479457674e-63
5.8340768229948e-64
5.2200103062284e-64
5.8340768229949e-64
2.8436676498255e-64
1.5800624728944e-64
2.3093220757688e-64
0
0
0
0
0
0
0
0
0
0
0
0
0
0
1.0676316397793e-69
5.3428242611189e-70
1.5332997725823e-67
7.7168613272417e-68
1.0829037650387e-65
5.4850791065929e-66
5.0210987752161e-64
2.5606996851395e-64
1.7223964224468e-62
8.8466121659032e-63
4.6712478779064e-61
2.4168003049045e-61
1.0442537167734e-59
5.4432162809864e-60
1.9775123453598e-58
1.0387577269491e-58
3.2308570451464e-57
1.7107825558407e-57
4.614612122908e-56
2.4639759076294e-56
5.8277115495466e-55
3.1384316337688e-55
6.5852119708117e-54
3.5765268163718e-54
6.7502418161027e-53
3.6955015780567e-53
6.3753741985925e-52
3.5150761441253e-52
5.6364432871713e-51
3.1263507008038e-51
4.7277225516855e-50
2.6355967768447e-50
3.7944407896502e-49
2.1249781909125e-49
2.9219995933177e-48
1.6439756784163e-48
2.1548822328834e-47
1.2186481813059e-47
1.5153351770009e-46
8.6208473670614e-47
1.0113621040296e-45
5.7931650146936e-46
6.3818639059155e-45
3.6837366332053e-45
3.7974672298389e-44
2.2104948020306e-44
2.1276994801001e-43
1.2497905827301e-43
1.1218911735812e-42
6.653437738823e-43
5.5672496241163e-42
3.3351086945661e-42
2.6012223451188e-41
1.5747212243696e-41
1.1451380162562e-40
7.0082384421723e-41
4.7536650428467e-40
2.9421387930934e-40
1.8623216485228e-39
1.1660753273421e-39
6.8912787515257e-39
4.366776535642e-39
2.410544462712e-38
1.5463848192303e-38
7.9768959706121e-38
5.1824019642981e-38
2.4990199272851e-37
1.6448153304805e-37
7.416810558595e-37
4.9473497511498e-37
2.0866741816671e-36
1.4111648492786e-36
5.5686217227923e-36
3.8194380440075e-36
1.4104366319778e-35
9.8151119238639e-36
3.392542974424e-35
2.3961686051763e-35
7.7538180026027e-35
5.5605338626071e-35
1.6849103567566e-34
1.2272780593156e-34
3.4830263054123e-34
2.577770068214e-34
6.8530528834392e-34
5.1553015066872e-34
1.2839197987531e-33
9.821299717934e-34
2.2908843948889e-33
1.7828271040828e-33
3.8923796498631e-33
3.0836964119956e-33
6.2933583278805e-33
5.0800199311488e-33
9.6686989185072e-33
7.9619508270163e-33
1.4075172823859e-32
1.184755178202e-32
1.9302637462826e-32
1.6670877506613e-32
2.459192525325e-32
2.1984947491977e-32
2.8318479236879e-32
2.6621562912639e-32
2.9358878130026e-32
2.894467193639e-32
2.9397653451428e-32
2.9244147242091e-32
2.8792468069898e-32
2.8905831379741e-32
2.7047237656599e-32
2.7716917800826e-32
2.3757683602448e-32
2.5180330522052e-32
1.9135153069015e-32
2.1234100592047e-32
1.3827764077523e-32
1.6286141057128e-32
8.7570109854579e-33
1.1122596722746e-32
4.7391018932528e-33
6.6109714637446e-33
2.1469188303724e-33
3.3465203378974e-33
8.1219717538387e-34
1.4256647653214e-33
2.6450931091635e-34
5.1657168764563e-34
7.8695537667736e-35
1.6553494911151e-34
2.2691623455212e-35
4.9516259374256e-35
6.5564634665065e-36
1.4455687630368e-35
1.9144981530227e-36
4.2150865192032e-36
5.6354781129089e-37
1.2358068516714e-36
1.6662567683451e-37
3.641784360721e-37
4.9413073909593e-38
1.0771710782473e-37
1.4699483314208e-38
3.196334013976e-38
4.389091069602e-39
9.5177832931567e-39
1.315582764153e-39
2.8449193196511e-39
3.9561042153799e-40
8.5344867418947e-40
1.1920001059924e-40
2.567453460851e-40
3.5928598832453e-41
7.7351230696854e-41
1.0815288179163e-41
2.3301603639681e-41
3.2466600632385e-42
7.0078399537984e-42
9.708367936039e-43
2.1012826167636e-42
2.8895043515291e-43
6.2754196993965e-43
8.5555214301196e-44
1.8652912859334e-43
2.5193037714522e-44
5.5155728456791e-44
7.3764669945168e-45
1.6219858220025e-44
2.1473977938992e-45
4.7428873634098e-45
6.2153418851253e-46
1.3789333242488e-45
1.7886112913877e-46
3.9860724666583e-46
5.1183394933937e-47
1.1456404681182e-46
1.4557864680489e-47
3.2750279581795e-47
4.1343605368489e-48
9.2915976422651e-48
1.1325715255171e-48
2.6630628143971e-48
3.8693868515156e-49
6.6765942868949e-49
3.3659650351878e-49
0
0
0
0
0
0
0
0
0
0
0
0
9.5317925446947e-70
4.7590462715126e-70
2.0558013777111e-67
1.0262891979258e-67
1.9651428958544e-65
9.8384902512214e-66
1.1656140432548e-63
5.8616494762812e-64
4.9285915252655e-62
2.4919732087561e-62
1.6037258205256e-60
8.1580135072315e-61
4.21710236794e-59
2.1592149180202e-59
9.2631734185436e-58
4.7756014124103e-58
1.7387562927094e-56
9.0291611111588e-57
2.8351766605567e-55
1.4834805598525e-55
4.0677316969472e-54
2.1453317398376e-54
5.1889652910373e-53
2.7593218126413e-53
5.9359012804747e-52
3.1834540230411e-52
6.1396581728939e-51
3.3209433305196e-51
5.7996594871559e-50
3.1626686596728e-50
5.0678683000972e-49
2.7836932432365e-49
4.1551364036291e-48
2.2962264486978e-48
3.2366918635894e-47
1.7976900235364e-47
2.4147369891377e-46
1.3472029689687e-46
1.7305820518213e-45
9.6988828663136e-46
1.1903775444401e-44
6.7048152057769e-45
7.8347363189362e-44
4.4382389428199e-44
4.9154201455831e-43
2.8027648310111e-43
2.9289254265133e-42
1.6824343417224e-42
1.6525573188919e-41
9.5706866990947e-42
8.8093923710728e-41
5.1477780354639e-41
4.4305860435241e-40
2.6141149042398e-40
2.1007673892545e-39
1.2522870301929e-39
9.388471476197e-39
5.657548647468e-39
3.9551935900539e-38
2.4106258963687e-38
1.5712880372215e-37
9.6905475336753e-38
5.8895533510349e-37
3.6769853066767e-37
2.0840522221306e-36
1.3176797564656e-36
6.9665614006989e-36
4.4624821426654e-36
2.2014661646336e-35
1.4291669735434e-35
6.5811914604231e-35
4.3314732295945e-35
1.8626395540177e-34
1.2432474480444e-34
4.9950236603509e-34
3.3821366772817e-34
1.2702879969894e-33
8.7276689384443e-34
3.0662356679586e-33
2.1382345491488e-33
7.0311309617488e-33
4.977834675048e-33
1.5328833029171e-32
1.1020778254189e-32
3.1794213236233e-32
2.322117796158e-32
6.2770095461917e-32
4.6590866629501e-32
1.1798825589377e-31
8.9046991276806e-32
2.1116248326728e-31
1.6214259068484e-31
3.5972924861137e-31
2.8124169121854e-31
5.8294490474714e-31
4.6446946714265e-31
8.9746363376317e-31
7.2962232088192e-31
1.3095304904444e-30
1.0882566796365e-30
1.8018785054324e-30
1.535878517476e-30
2.3090434057592e-30
2.0347931490956e-30
2.6858502301308e-30
2.483934521016e-30
2.808736807389e-30
2.7293895902478e-30
2.8149618454014e-30
2.7704995531517e-30
2.7680378589042e-30
2.7448136502731e-30
2.618972729429e-30
2.6462930983462e-30
2.3249509643139e-30
2.4253428107568e-30
1.8995364811549e-30
2.0704428302319e-30
1.3987184845951e-30
1.6138737352262e-30
9.0790302476446e-31
1.1256613283567e-30
5.0726775206593e-31
6.8751701833575e-31
2.3906687290958e-31
3.6013924095945e-31
9.4547465602489e-32
1.5973661905053e-31
3.2133851411421e-32
6.0385070779405e-32
9.8925072891665e-33
2.0106947727007e-32
2.9224763851151e-33
6.1992551723756e-33
8.5976572264547e-34
1.8513479137142e-33
2.5510784833918e-34
5.4983376023202e-34
7.6337003530249e-35
1.639663216253e-34
2.2972467558741e-35
4.9162226163931e-35
6.9424933972422e-36
1.4809274218515e-35
2.1069475390458e-36
4.4802630518077e-36
6.42352919725e-37
1.3614924044433e-36
1.967003541556e-37
4.156317634942e-37
6.0438580762414e-38
1.2739945444444e-37
1.8601902749274e-38
3.9161343396265e-38
5.7232064617773e-39
1.2050521855561e-38
1.7566679840932e-39
3.7046818628863e-39
5.3702074883708e-40
1.1357742169629e-39
1.6331812163398e-40
3.4672691281043e-40
4.9374842733813e-41
1.0529000184044e-40
1.4833279062489e-41
3.1784173027866e-41
4.4274421526327e-42
9.5346515641981e-42
1.3128949539267e-42
2.8418178744507e-42
3.8679134972865e-43
8.4151640515661e-43
1.1322018492146e-43
2.4757852413465e-43
3.2931681612734e-44
7.237383593649e-44
9.5200587900047e-45
2.1023247411234e-44
2.7340985093877e-45
6.0710148665484e-45
7.837494143839e-46
1.7390428845223e-45
2.1654118198834e-46
5.0320310347933e-46
7.478247120653e-47
1.269865788699e-46
6.4998626546258e-47
0
0
0
0
0
0
0
0
0
0
4.4061439031167e-70
2.1917818478979e-70
1.2698795763498e-67
6.3021635764197e-68
1.5777470181341e-65
7.8297313616766e-66
1.1722248800993e-63
5.8285573019346e-64
6.0386648060076e-62
3.0126167280014e-62
2.3431823235449e-60
1.1741198597854e-60
7.2204756883126e-59
3.6367136429607e-59
1.8335174377369e-57
9.2879499449354e-58
3.9393624626485e-56
2.0080090382198e-56
7.2986060006121e-55
3.7452304122741e-55
1.1830930171137e-53
6.1141586439623e-54
1.6974688123051e-52
8.8383473852775e-53
2.1752663103008e-51
1.1415577812972e-51
2.5087929045325e-50
1.3274366575127e-50
2.6219671753597e-49
1.3991355419318e-49
2.4991150750799e-48
1.3450926163305e-48
2.1879600712546e-47
1.1874576210542e-47
1.7776661863451e-46
9.7193815896047e-47
1.3595343142265e-45
7.477304134303e-46
9.9289228139362e-45
5.4855961580261e-45
6.9845711268731e-44
3.8743872016401e-44
4.7356684612707e-43
2.6389171617035e-43
3.0811485588793e-42
1.7268666934824e-42
1.9138172820395e-41
1.080197010334e-41
1.130753103232e-40
6.4339863992507e-41
6.3421680586205e-40
3.6408082023143e-40
3.3730819848187e-39
1.9547701353364e-39
1.6997344012534e-38
9.9491095407342e-39
8.1087540840672e-38
4.7963159128859e-38
3.6592256990082e-37
2.1883227005139e-37
1.5607778700805e-36
9.4417908011301e-37
6.2878533414199e-36
3.8497556198764e-36
2.3912221123535e-35
1.4825064214601e-35
8.5802919057901e-35
5.3895572708433e-35
2.9041669423203e-34
1.8491534772131e-34
9.2708192444078e-34
5.9867318762624e-34
2.7912873344167e-33
1.8289636127416e-33
7.9282973825147e-33
5.2734907732487e-33
2.1254501102037e-32
1.43563691744e-32
5.3822218360919e-32
3.6926826747715e-32
1.2889280923429e-31
8.9834430235846e-32
2.9239685253551e-31
2.0700787886812e-31
6.2968948631496e-31
4.5270857951755e-31
1.2906059325734e-30
9.4181771715828e-31
2.524238043878e-30
1.868777808579e-30
4.7221834522882e-30
3.5452740876137e-30
8.4614504999958e-30
6.4419030004265e-30
1.4522791657186e-29
1.1218121122056e-29
2.3839299880574e-29
1.8707244076956e-29
3.7317148684057e-29
2.9806980912266e-29
5.5476205850347e-29
4.5223545327755e-29
7.784834614863e-29
6.5021060524074e-29
1.0192989969923e-28
8.7877458476961e-29
1.2159835257098e-28
1.0978318382575e-28
1.2973645024308e-28
1.2359967372549e-28
1.3038136253464e-28
1.2689310616856e-28
1.2898378921654e-28
1.2614826062717e-28
1.23193869149e-28
1.225258415714e-28
1.1081056410938e-28
1.1356514028387e-28
9.2060472948426e-29
9.8389684490865e-29
6.9190406821012e-29
7.8103887451533e-29
4.6061128646411e-29
5.5704907268052e-29
2.6555486181473e-29
3.4967715972809e-29
1.2999338966849e-29
1.8938200463456e-29
5.3646432797941e-30
8.7320459156839e-30
1.9010382064337e-30
3.4392905389635e-30
6.0591064008896e-31
1.1896152285786e-30
1.8363092794984e-31
3.7830821768594e-31
5.5066044686802e-32
1.1569296234535e-31
1.6613732575927e-32
3.5026055285273e-32
5.0554774948193e-33
1.0629806115928e-32
1.5488742939716e-33
3.2439310621023e-33
4.7719581890827e-34
9.9554336541791e-34
1.4782678568101e-34
3.0721072861699e-34
4.6050410942793e-35
9.5334359734592e-35
1.4418273687282e-35
2.9746546903933e-35
4.5305695487034e-36
9.324261654823e-36
1.4255190997323e-36
2.9311208980499e-36
4.4797812296676e-37
9.2191616014958e-37
1.4027108966855e-37
2.894175734367e-37
4.3682324263384e-38
9.0489122522953e-38
1.3513061710762e-38
2.8132258665834e-38
4.1499780804055e-39
8.6877326504594e-39
1.2649864090904e-39
2.6636198293312e-39
3.827115348795e-40
8.1061676432524e-40
1.1493260221795e-40
2.4486749886562e-40
3.4265736302043e-41
7.3426837424418e-41
1.0143626791496e-41
2.185968003996e-41
2.9820756686628e-42
6.4620708072155e-42
8.7087925981942e-43
1.8971520732967e-42
2.5254784076044e-43
5.534270274297e-43
7.3075073577013e-44
1.6006209230111e-43
2.0363184694976e-44
4.6760386450274e-44
7.1096355175481e-45
1.1876970088506e-44
6.1737282737903e-45
0
0
0
0
0
0
0
0
0
0
3.216952206519e-68
1.5791555105489e-68
6.6715061942642e-66
3.2762386603922e-66
6.6734558009971e-64
3.2812717710108e-64
4.2882563611148e-62
2.1132068990222e-62
1.998095255697e-60
9.8772361935252e-61
7.2243439315532e-59
3.5852140341972e-59
2.1173442547387e-57
1.0555832735409e-57
5.1892371680286e-56
2.6003573932442e-56
1.0876399187912e-54
5.4810533476909e-55
1.9821367880634e-53
1.0050029009521e-53
3.1822258272658e-52
1.6241153640235e-52
4.5469832153766e-51
2.3369673130641e-51
5.8292537631537e-50
3.0183633255968e-50
6.7512203415755e-49
3.5232073442909e-49
7.1080348873639e-48
3.739895952265e-48
6.8362866317914e-47
3.6277203007955e-47
6.033433861658e-46
3.229714715011e-46
4.9156913640337e-45
2.6537487070019e-45
3.7314501196777e-44
2.0294178002788e-44
2.6760410632045e-43
1.46344916786e-43
1.8446050254972e-42
1.0122369872797e-42
1.2397820818513e-41
6.8200559061439e-42
8.1699977211722e-41
4.5089550837567e-41
5.2618750998046e-40
2.9195365654058e-40
3.2873438146724e-39
1.8379265060456e-39
1.9761551609865e-38
1.1152819070398e-38
1.134846499548e-37
6.4729436481596e-38
6.1887535288507e-37
3.5704524413431e-37
3.1899860335342e-36
1.8626540433079e-36
1.5487721128707e-35
9.1576378250318e-36
7.0654655520788e-35
4.2325691418389e-35
3.0237395595302e-34
1.8360646823664e-34
1.2126965571255e-33
7.4678469907019e-34
4.5549523578902e-33
2.8461639411731e-33
1.6015704527305e-32
1.016035470269e-32
5.269515391455e-32
3.3962633249049e-32
1.6216949068921e-31
1.0626293113354e-31
4.6655264320907e-31
3.1106203444943e-31
1.2538924362238e-30
8.5139305633983e-31
3.1455849934407e-30
2.1772693826388e-30
7.3605614018376e-30
5.1984926928564e-30
1.6060476241134e-29
1.1583246672241e-29
3.2699420155975e-29
2.4093211967304e-29
6.2274441510603e-29
4.6860040892329e-29
1.1148357953871e-28
8.5550739905699e-29
1.8906162030094e-28
1.4756549029557e-28
3.0671948600424e-28
2.4263114802972e-28
4.8073970573513e-28
3.8403589524201e-28
7.3325437169591e-28
5.9004309997831e-28
1.0908647951377e-27
8.8388939657269e-28
1.5771830806667e-27
1.2896995993538e-27
2.1958100611471e-27
1.8212780553035e-27
2.899269525489e-27
2.4606487208868e-27
3.5377213906754e-27
3.1200448402004e-27
3.8727737167145e-27
3.6040937050687e-27
3.9172856635385e-27
3.7641269835984e-27
3.8980467476731e-27
3.7583961123261e-27
3.7576017510399e-27
3.6766558736353e-27
3.4297167333482e-27
3.4495051097037e-27
2.9004804274658e-27
3.0362479967794e-27
2.2272939149427e-27
2.4573292769347e-27
1.5213658522144e-27
1.7934994343767e-27
9.0464896006623e-28
1.1572095358968e-27
4.5936295477514e-28
6.475123056253e-28
1.9748673995245e-28
3.0994177462448e-28
7.2892944705455e-29
1.2702715777756e-28
2.4060432613128e-29
4.5619928317694e-29
7.4891748510099e-30
1.4971716160312e-29
2.2918814273442e-30
4.6933233683675e-30
7.0367962484262e-31
1.4498188109169e-30
2.178672213976e-31
4.4809076300061e-31
6.7987625461471e-32
1.3925823586558e-31
2.1365749389427e-32
4.35640456933e-32
6.760726442621e-33
1.3720947548043e-32
2.1537739156705e-33
4.3514384779635e-33
6.9013840056777e-34
1.3889996353581e-33
2.2198292657597e-34
4.45671795652e-34
7.1465647746459e-35
1.4340713829046e-34
2.2956209990439e-35
4.6142492801712e-35
7.3368888468326e-36
1.4801917920034e-35
2.328347991149e-36
4.722128076773e-36
7.3282245469958e-37
1.4955622910676e-36
2.2864632007087e-37
4.6978249019244e-37
7.0719356404775e-38
1.4630289342786e-37
2.1687332337926e-38
4.5172098105614e-38
6.5959971717957e-39
1.3830028022939e-38
1.9901057855582e-39
4.1996542570695e-39
5.9580918933316e-40
1.2651770575006e-39
1.7704482584922e-40
3.7822603759418e-40
5.223418865501e-41
1.1223035008261e-40
1.5295844014969e-41
3.3073865544905e-41
4.4677314951742e-42
9.6585959520927e-42
1.2557308498631e-42
2.8489900855576e-42
4.4332239364647e-43
7.2829798723215e-43
3.8457502903463e-43
0
0
0
0
0
0
0
0
1.0505511094388e-78
5.111638334063e-79
1.138856340521e-66
5.5116540353585e-67
2.0661025497985e-64
1.0019952417801e-64
1.8518151810024e-62
9.002350397828e-63
1.0902177589422e-60
5.3152151639318e-61
4.7394580903086e-59
2.3184735633138e-59
1.6224930230566e-57
7.9677909207818e-58
4.5563020160449e-56
2.2472561053698e-56
1.0802823020227e-54
5.3536823516881e-55
2.2077576957857e-53
1.0998413587077e-53
3.9495319925513e-52
1.9786634842433e-52
6.2615310461338e-51
3.1560522994699e-51
8.879307550802e-50
4.5047732243906e-50
1.1347579535114e-48
5.7972048272517e-49
1.315289009723e-47
6.7694010611232e-48
1.3899806234344e-46
7.2098267769713e-47
1.3454224050554e-45
7.0360274375558e-46
1.1977341538478e-44
6.317704782709e-45
9.8374106983611e-44
5.2355380814987e-44
7.4795527079647e-43
4.0155794381742e-43
5.3117028784821e-42
2.8720840599434e-42
3.5944258971931e-41
1.9509513228557e-41
2.3870284020462e-40
1.2958415571618e-40
1.5988390219711e-39
8.6686371030938e-40
1.0919312683715e-38
5.92394632948e-39
7.5316109345321e-38
4.1038449917193e-38
5.1355843302929e-37
2.8203122816982e-37
3.3852902739447e-36
1.8783158787591e-36
2.1198641600845e-35
1.1901947861334e-35
1.2463048491797e-34
7.0878635338602e-35
6.8297365160506e-34
3.9374043709534e-34
3.4741648007551e-33
2.0317082108026e-33
1.6368409710723e-32
9.7163260197575e-33
7.1353858650768e-32
4.3021180452064e-32
2.8769684460037e-31
1.7630533707941e-31
1.0729340185058e-30
6.6878504953444e-31
3.7014737808578e-30
2.3486806723627e-30
1.1812138619845e-29
7.6367730085027e-30
3.4862197166299e-29
2.2988365801247e-29
9.5131558666858e-29
6.4052141000364e-29
2.3989974808333e-28
1.6513523638244e-28
5.5855203832068e-28
3.9366241576927e-28
1.1985612072017e-27
8.6653199520395e-28
2.3634617863456e-27
1.7569747520698e-27
4.2664267375452e-27
3.2700450629918e-27
7.0295708596075e-27
5.5674847348946e-27
1.0589938660273e-26
8.6666224199415e-27