/*--------------------------------*- C++ -*----------------------------------*\
  =========                 |
  \\      /  F ield         | OpenFOAM: The Open Source CFD Toolbox
   \\    /   O peration     | Website:  https://openfoam.org
    \\  /    A nd           | Version:  7
     \\/     M anipulation  |
\*---------------------------------------------------------------------------*/
FoamFile
{
    version     2.0;
    format      ascii;
    class       volScalarField;
    location    "0.075";
    object      T;
}
// * * * * * * * * * * * * * * * * * * * * * * * * * * * * * * * * * * * * * //

dimensions      [0 0 0 1 0 0 0];

internalField   nonuniform List<scalar> 
12225
(
1.00689
1.0041
1.00171
1.00089
1.00043
1.00012
0.999964
0.999897
0.999865
0.999842
0.999826
0.999796
0.999731
0.999564
0.999137
0.998118
0.995378
0.989174
0.995136
0.994812
0.996745
0.998334
0.999127
0.999464
0.999644
0.999763
0.999838
0.999878
0.999895
0.999889
0.999836
0.999683
0.999275
0.9983
0.995835
0.990165
0.999619
1.00005
1.00023
1.00028
1.0002
1.00008
0.999991
0.999952
0.999932
0.999916
0.999897
0.999868
0.999804
0.999648
0.999263
0.998362
0.996213
0.991648
1.00032
1.00017
0.999777
0.999749
0.999819
0.999835
0.999837
0.99985
0.999864
0.99987
0.999868
0.999852
0.999799
0.999662
0.999319
0.998527
0.996743
0.993177
1.00014
0.999947
0.999658
0.999701
0.999818
0.999857
0.999862
0.999871
0.999881
0.999885
0.999882
0.999865
0.999816
0.999691
0.99939
0.998714
0.997275
0.99456
1.00002
0.999951
0.999769
0.999773
0.999847
0.999872
0.999872
0.999877
0.999884
0.999887
0.999884
0.999869
0.999825
0.999716
0.999459
0.998901
0.997772
0.995747
0.999995
1
0.999864
0.999822
0.999858
0.999877
0.999879
0.999882
0.999888
0.999891
0.999889
0.999875
0.999837
0.999744
0.999531
0.999086
0.998221
0.996732
0.999995
1.00002
0.999917
0.999858
0.999872
0.999888
0.999889
0.999891
0.999896
0.999898
0.999896
0.999884
0.999851
0.999774
0.999603
0.999255
0.998608
0.997529
0.999995
1.00002
0.999951
0.999894
0.999893
0.999902
0.999902
0.999903
0.999905
0.999906
0.999904
0.999893
0.999865
0.999803
0.99967
0.999407
0.998932
0.998161
0.999995
1.00002
0.999976
0.999926
0.999916
0.999918
0.999916
0.999915
0.999916
0.999916
0.999913
0.999903
0.999881
0.999832
0.99973
0.999536
0.999195
0.998652
0.999996
1.00002
0.999992
0.999953
0.999938
0.999935
0.999931
0.999927
0.999927
0.999926
0.999922
0.999914
0.999897
0.999859
0.999783
0.999644
0.999404
0.999029
0.999997
1.00001
1
0.999971
0.999954
0.999949
0.999944
0.99994
0.999938
0.999935
0.999932
0.999925
0.999911
0.999882
0.999826
0.999724
0.999553
0.999288
0.999997
1.00001
1.00001
0.999984
0.999968
0.999962
0.999957
0.999952
0.999948
0.999945
0.999943
0.999937
0.999924
0.999903
0.999862
0.999789
0.999669
0.999486
0.999997
1.00001
1.00001
0.999993
0.999981
0.999974
0.999968
0.999964
0.99996
0.999956
0.999954
0.999949
0.999939
0.999924
0.999896
0.999847
0.999769
0.999652
0.999998
1.00001
1.00001
1
0.999991
0.999985
0.999981
0.999977
0.999973
0.999968
0.999965
0.999961
0.999955
0.999945
0.999926
0.999896
0.999849
0.99978
0.999998
1.00001
1.00001
1
0.999998
0.999994
0.999991
0.999988
0.999983
0.999979
0.999976
0.999973
0.99997
0.999963
0.99995
0.999933
0.999907
0.99987
0.999998
1.00001
1.00001
1.00001
1
0.999999
0.999998
0.999996
0.999992
0.999989
0.999985
0.999982
0.99998
0.999977
0.99997
0.99996
0.999947
0.99993
0.999999
1.00001
1.00001
1.00001
1
1
1
0.999998
0.999995
0.999993
0.999993
0.999991
0.999988
0.999984
0.999981
0.999978
0.999972
0.999964
1
1.00001
1.00001
1.00001
1
1
1
0.999999
0.999998
0.999996
0.999994
0.999992
0.99999
0.999988
0.999987
0.999984
0.999981
0.999977
0.999999
1.00001
1.00001
1.00001
1.00001
1
0.999998
0.999996
0.999993
0.999991
0.999989
0.999987
0.999985
0.999982
0.999981
0.999979
0.999976
0.999974
0.999997
1.00001
1.00001
1.00001
1
0.999998
0.999993
0.999988
0.999985
0.999982
0.999979
0.999976
0.999973
0.999972
0.999971
0.999969
0.999968
0.999966
0.999997
1.00001
1.00002
1.00001
0.999995
0.999988
0.999982
0.999975
0.999969
0.999965
0.999964
0.999963
0.99996
0.999959
0.999958
0.999958
0.999957
0.999955
0.999996
1.00003
1.00003
0.999996
0.999972
0.999966
0.999961
0.999956
0.999952
0.999949
0.999948
0.999947
0.999946
0.999945
0.999945
0.999944
0.999944
0.999944
0.999989
1.00005
1.00004
0.999983
0.999948
0.999938
0.999932
0.999929
0.999929
0.999931
0.999932
0.999933
0.999932
0.999933
0.999934
0.999934
0.999935
0.999935
0.99999
1.00004
0.999992
0.999937
0.999931
0.999929
0.999917
0.999909
0.999908
0.99991
0.999912
0.999915
0.999917
0.999918
0.999919
0.999921
0.999924
0.999925
1.00013
1.00009
0.999825
0.999756
0.999837
0.999896
0.999909
0.999912
0.999916
0.999918
0.99992
0.999921
0.999922
0.999922
0.999923
0.999924
0.999925
0.999926
1.0005
1.00053
0.999952
0.999665
0.999667
0.999718
0.999754
0.999789
0.99982
0.999844
0.999861
0.999875
0.999885
0.999893
0.9999
0.999905
0.999909
0.999915
1.00004
1.0008
1.00096
1.0008
1.00056
1.00034
1.00018
1.00009
1.00003
0.999996
0.99997
0.999954
0.999943
0.999935
0.99993
0.999925
0.999921
0.999921
0.994604
0.993791
0.995838
0.997661
0.998662
0.999144
0.999416
0.999594
0.99971
0.999782
0.999829
0.999863
0.999887
0.999905
0.999918
0.999928
0.999933
0.99993
1.00635
1.00419
1.00178
1.00096
1.00054
1.00023
1.00005
0.999977
0.999939
0.999915
0.9999
0.999892
0.999888
0.999886
0.999885
0.999886
0.999888
0.999899
0.684597
0.684592
0.68454
0.684464
0.68438
0.684285
0.684175
0.684054
0.683923
0.683784
0.683639
0.683488
0.683331
0.683169
0.683003
0.682836
0.682668
0.682501
0.682338
0.682181
0.682031
0.68189
0.681761
0.681646
0.681547
0.681466
0.681404
0.68136
0.681333
0.681327
0.681353
0.681438
0.681651
0.68211
0.682589
0.682916
0.683265
0.683594
0.683921
0.684254
0.684567
0.68494
0.685411
0.685867
0.686366
0.686951
0.687559
0.688201
0.688875
0.689579
0.69031
0.691067
0.691849
0.692653
0.693479
0.694324
0.695188
0.696069
0.696966
0.697877
0.698801
0.699736
0.700682
0.701637
0.702599
0.703568
0.704542
0.705521
0.706502
0.707486
0.70847
0.709455
0.710439
0.711421
0.712401
0.713377
0.71435
0.715317
0.71628
0.717236
0.718186
0.719129
0.720065
0.720993
0.721913
0.722824
0.723726
0.724619
0.725503
0.726377
0.727241
0.728096
0.72894
0.729773
0.730595
0.731405
0.732202
0.732983
0.733756
0.73452
0.735272
0.736012
0.73674
0.737455
0.738158
0.738848
0.739526
0.74019
0.740841
0.741479
0.742104
0.742715
0.743312
0.743896
0.744466
0.745022
0.745563
0.746091
0.746603
0.747101
0.747584
0.748051
0.748502
0.748937
0.749355
0.749756
0.750141
0.750509
0.750861
0.751195
0.751513
0.751813
0.752096
0.752361
0.752608
0.752837
0.753049
0.753242
0.753417
0.753573
0.75371
0.753829
0.753927
0.754005
0.754061
0.754097
0.754111
0.754103
0.754073
0.75402
0.753945
0.753846
0.753725
0.753579
0.75341
0.753217
0.752999
0.752757
0.75249
0.752198
0.75188
0.751533
0.751152
0.750723
0.75025
0.749747
0.749219
0.748667
0.748091
0.747491
0.746867
0.746217
0.745542
0.744842
0.744119
0.743367
0.742613
0.741749
0.741141
0.739354
0.685419
0.685403
0.685374
0.685323
0.685259
0.685183
0.685093
0.684988
0.684868
0.684732
0.684585
0.684428
0.684264
0.684095
0.683924
0.683752
0.683582
0.683415
0.683253
0.6831
0.682956
0.682826
0.682713
0.68262
0.682552
0.682513
0.68251
0.682546
0.682628
0.682755
0.682922
0.683113
0.683308
0.683341
0.683293
0.683411
0.683622
0.683915
0.684274
0.684676
0.685135
0.685615
0.686073
0.686591
0.687172
0.687755
0.688362
0.688997
0.689662
0.690356
0.691078
0.691826
0.692599
0.693395
0.694213
0.69505
0.695906
0.69678
0.697669
0.698572
0.699488
0.700417
0.701355
0.702302
0.703258
0.704219
0.705186
0.706158
0.707132
0.708109
0.709086
0.710064
0.711041
0.712017
0.71299
0.71396
0.714926
0.715887
0.716843
0.717794
0.718737
0.719674
0.720604
0.721526
0.722439
0.723344
0.72424
0.725127
0.726004
0.726871
0.727729
0.728576
0.729413
0.730238
0.731054
0.731858
0.732653
0.733439
0.734212
0.734971
0.735717
0.73645
0.737171
0.73788
0.738576
0.739258
0.739928
0.740585
0.741228
0.741858
0.742475
0.743078
0.743667
0.744242
0.744804
0.745351
0.745884
0.746402
0.746905
0.747394
0.747867
0.748325
0.748766
0.74919
0.749598
0.749989
0.750364
0.750722
0.751062
0.751386
0.751692
0.751981
0.752252
0.752505
0.75274
0.752958
0.753157
0.753337
0.753499
0.753642
0.753766
0.753871
0.753955
0.754019
0.754061
0.754082
0.754081
0.754058
0.754012
0.753943
0.753852
0.753736
0.753598
0.753435
0.753248
0.753037
0.752801
0.75254
0.752253
0.751941
0.751602
0.751236
0.750844
0.750429
0.749989
0.74952
0.749025
0.748503
0.747956
0.747382
0.746782
0.746157
0.745506
0.744829
0.744128
0.743402
0.742671
0.741856
0.741209
0.739832
0.68716
0.687099
0.687051
0.686994
0.686924
0.686836
0.686732
0.686611
0.686476
0.686328
0.686169
0.686001
0.685826
0.685647
0.685464
0.685281
0.6851
0.684922
0.68475
0.684587
0.684435
0.684296
0.684174
0.684071
0.68399
0.683933
0.683901
0.683895
0.683913
0.683954
0.684017
0.684106
0.684227
0.684363
0.684516
0.684711
0.684942
0.685217
0.685538
0.685906
0.686326
0.686796
0.687301
0.687838
0.688399
0.688979
0.689586
0.69022
0.690881
0.69157
0.692284
0.693024
0.693789
0.694575
0.695384
0.696212
0.697059
0.697923
0.698803
0.699698
0.700605
0.701525
0.702455
0.703395
0.704342
0.705297
0.706257
0.707222
0.70819
0.709161
0.710133
0.711105
0.712078
0.713049
0.714018
0.714984
0.715947
0.716905
0.717858
0.718806
0.719748
0.720683
0.721611
0.722532
0.723444
0.724349
0.725244
0.726131
0.727008
0.727877
0.728735
0.729583
0.730422
0.731249
0.732066
0.732871
0.733665
0.734448
0.73522
0.73598
0.736728
0.737463
0.738187
0.738898
0.739596
0.740281
0.740953
0.741612
0.742258
0.742891
0.743511
0.744116
0.744708
0.745286
0.74585
0.746399
0.746935
0.747455
0.747961
0.748451
0.748927
0.749386
0.749829
0.750255
0.750665
0.751057
0.751433
0.751792
0.752134
0.752458
0.752765
0.753054
0.753325
0.753578
0.753813
0.75403
0.754228
0.754408
0.754568
0.75471
0.754832
0.754934
0.755016
0.755076
0.755115
0.755133
0.755128
0.7551
0.75505
0.754976
0.754879
0.754759
0.754614
0.754445
0.754252
0.754034
0.753791
0.753523
0.753229
0.75291
0.752564
0.752193
0.751797
0.751381
0.750943
0.750479
0.749988
0.749471
0.748927
0.748357
0.74776
0.747137
0.746488
0.745813
0.745113
0.744387
0.743648
0.742839
0.742155
0.741017
0.689763
0.689659
0.689583
0.689511
0.689425
0.689319
0.689196
0.689057
0.688904
0.688739
0.688563
0.688379
0.688188
0.687992
0.687794
0.687596
0.687399
0.687207
0.687021
0.686844
0.686678
0.686525
0.686389
0.686271
0.686173
0.686097
0.686044
0.686016
0.686012
0.686035
0.686088
0.686172
0.686289
0.68643
0.686599
0.686805
0.687046
0.687322
0.687635
0.687985
0.688374
0.6888
0.689262
0.68976
0.690291
0.690851
0.691441
0.69206
0.692706
0.69338
0.694079
0.694804
0.695552
0.696324
0.697116
0.697929
0.69876
0.699609
0.700474
0.701354
0.702248
0.703154
0.704071
0.704997
0.705933
0.706875
0.707824
0.708778
0.709736
0.710698
0.711661
0.712625
0.71359
0.714554
0.715516
0.716476
0.717434
0.718388
0.719337
0.720281
0.721221
0.722154
0.72308
0.724
0.724912
0.725816
0.726712
0.7276
0.728479
0.729349
0.73021
0.731061
0.731903
0.732734
0.733555
0.734365
0.735164
0.735953
0.73673
0.737495
0.738249
0.73899
0.73972
0.740437
0.741142
0.741834
0.742513
0.743179
0.743833
0.744473
0.745099
0.745712
0.746312
0.746897
0.747469
0.748026
0.748569
0.749097
0.74961
0.750108
0.750591
0.751057
0.751508
0.751941
0.752357
0.752756
0.753139
0.753504
0.753852
0.754182
0.754495
0.754789
0.755066
0.755324
0.755564
0.755785
0.755987
0.75617
0.756334
0.756479
0.756603
0.756708
0.756791
0.756853
0.756893
0.75691
0.756906
0.756878
0.756827
0.756753
0.756655
0.756533
0.756386
0.756215
0.756019
0.755799
0.755553
0.755281
0.754984
0.754661
0.754312
0.753938
0.753539
0.753117
0.752672
0.752202
0.751705
0.751181
0.750632
0.750056
0.749453
0.748823
0.748167
0.747485
0.746776
0.746039
0.745285
0.744468
0.743752
0.742718
0.693196
0.693052
0.692951
0.692865
0.692763
0.692639
0.692496
0.692337
0.692163
0.691977
0.69178
0.691574
0.691361
0.691144
0.690924
0.690704
0.690487
0.690274
0.690067
0.689869
0.689683
0.689509
0.689352
0.689212
0.689092
0.688994
0.68892
0.688871
0.688848
0.688854
0.688891
0.688959
0.689057
0.689185
0.689343
0.689536
0.689764
0.690027
0.690325
0.690658
0.691028
0.691432
0.69187
0.692342
0.692847
0.693383
0.69395
0.694547
0.695172
0.695824
0.696502
0.697206
0.697933
0.698683
0.699455
0.700247
0.701059
0.701888
0.702733
0.703594
0.704469
0.705357
0.706257
0.707167
0.708086
0.709013
0.709947
0.710887
0.711832
0.712781
0.713732
0.714686
0.71564
0.716595
0.717548
0.718501
0.719451
0.720399
0.721342
0.722282
0.723217
0.724147
0.725071
0.725988
0.726899
0.727803
0.728699
0.729588
0.730468
0.73134
0.732203
0.733057
0.733902
0.734737
0.735562
0.736377
0.737181
0.737975
0.738758
0.739529
0.74029
0.741038
0.741775
0.7425
0.743212
0.743912
0.7446
0.745275
0.745936
0.746585
0.747221
0.747843
0.748452
0.749046
0.749627
0.750193
0.750745
0.751283
0.751805
0.752312
0.752803
0.753278
0.753737
0.754179
0.754603
0.755011
0.755401
0.755774
0.75613
0.756467
0.756787
0.757088
0.75737
0.757635
0.75788
0.758106
0.758313
0.758501
0.758669
0.758817
0.758944
0.759051
0.759137
0.7592
0.759241
0.75926
0.759256
0.759228
0.759176
0.759101
0.759002
0.758878
0.758729
0.758556
0.758357
0.758133
0.757883
0.757608
0.757306
0.756979
0.756625
0.756246
0.755842
0.755413
0.75496
0.754481
0.753976
0.753445
0.752888
0.752304
0.751693
0.751055
0.75039
0.749698
0.748978
0.748229
0.747459
0.746631
0.745897
0.744891
0.697469
0.697294
0.697174
0.697073
0.696955
0.696812
0.696649
0.696467
0.69627
0.696059
0.695837
0.695606
0.695367
0.695124
0.694879
0.694633
0.69439
0.694151
0.693918
0.693695
0.693483
0.693285
0.693103
0.692938
0.692794
0.692671
0.692573
0.692501
0.692456
0.692441
0.692455
0.692501
0.692577
0.692684
0.692823
0.692995
0.693202
0.693443
0.693719
0.69403
0.694376
0.694756
0.69517
0.695616
0.696095
0.696605
0.697146
0.697715
0.698313
0.698938
0.69959
0.700267
0.700968
0.701692
0.702438
0.703204
0.70399
0.704794
0.705616
0.706453
0.707305
0.70817
0.709047
0.709936
0.710835
0.711742
0.712657
0.713579
0.714507
0.715439
0.716375
0.717314
0.718254
0.719196
0.720138
0.72108
0.72202
0.722958
0.723894
0.724826
0.725755
0.726679
0.727598
0.728512
0.72942
0.730321
0.731216
0.732103
0.732984
0.733856
0.73472
0.735576
0.736424
0.737262
0.73809
0.738909
0.739718
0.740517
0.741306
0.742083
0.74285
0.743605
0.74435
0.745082
0.745802
0.74651
0.747206
0.74789
0.748561
0.749219
0.749864
0.750495
0.751113
0.751717
0.752308
0.752884
0.753445
0.753992
0.754524
0.755041
0.755541
0.756026
0.756494
0.756944
0.757378
0.757794
0.758193
0.758574
0.758937
0.759282
0.759609
0.759917
0.760206
0.760476
0.760727
0.760959
0.761171
0.761363
0.761535
0.761686
0.761817
0.761926
0.762013
0.762078
0.76212
0.762139
0.762134
0.762106
0.762053
0.761976
0.761874
0.761748
0.761596
0.761419
0.761216
0.760988
0.760733
0.760452
0.760145
0.759812
0.759452
0.759066
0.758655
0.758218
0.757757
0.757269
0.756756
0.756216
0.755649
0.755056
0.754436
0.753789
0.753114
0.752411
0.75168
0.750918
0.750133
0.749293
0.748542
0.747525
0.702605
0.702412
0.702276
0.70216
0.702024
0.701861
0.701676
0.70147
0.701247
0.70101
0.70076
0.7005
0.700233
0.699961
0.699686
0.699411
0.699138
0.698869
0.698608
0.698355
0.698115
0.697888
0.697678
0.697486
0.697314
0.697165
0.69704
0.696941
0.69687
0.696828
0.696817
0.696836
0.696885
0.696967
0.69708
0.697227
0.697407
0.697622
0.697871
0.698154
0.698471
0.698822
0.699205
0.699622
0.700069
0.700548
0.701057
0.701594
0.70216
0.702754
0.703373
0.704018
0.704687
0.70538
0.706094
0.70683
0.707585
0.708359
0.70915
0.709958
0.710782
0.711619
0.71247
0.713332
0.714205
0.715088
0.71598
0.716879
0.717785
0.718696
0.719612
0.720532
0.721455
0.722381
0.723307
0.724234
0.725161
0.726086
0.72701
0.727932
0.728851
0.729767
0.730678
0.731585
0.732487
0.733384
0.734275
0.735159
0.736037
0.736908
0.737772
0.738627
0.739475
0.740315
0.741145
0.741967
0.742779
0.743582
0.744375
0.745158
0.74593
0.746691
0.747441
0.748181
0.748908
0.749624
0.750328
0.751019
0.751699
0.752365
0.753019
0.75366
0.754287
0.754901
0.7555
0.756086
0.756657
0.757214
0.757755
0.758281
0.758791
0.759285
0.759762
0.760221
0.760664
0.761089
0.761496
0.761885
0.762256
0.762609
0.762943
0.763257
0.763553
0.763829
0.764086
0.764322
0.764539
0.764735
0.764911
0.765066
0.765199
0.76531
0.765399
0.765464
0.765507
0.765525
0.76552
0.76549
0.765436
0.765356
0.765252
0.765122
0.764966
0.764784
0.764576
0.764342
0.764082
0.763795
0.763481
0.76314
0.762773
0.76238
0.76196
0.761515
0.761044
0.760546
0.760023
0.759473
0.758896
0.758293
0.757662
0.757004
0.756318
0.755604
0.75486
0.754085
0.753285
0.75243
0.751663
0.750618
0.708641
0.708437
0.708288
0.708155
0.708
0.707816
0.707607
0.707376
0.707126
0.70686
0.706581
0.70629
0.705992
0.705688
0.70538
0.705073
0.704767
0.704466
0.704172
0.703888
0.703616
0.703358
0.703116
0.702893
0.702691
0.702512
0.702357
0.702228
0.702127
0.702055
0.702012
0.702
0.702019
0.70207
0.702153
0.702269
0.702418
0.7026
0.702817
0.703066
0.70335
0.703666
0.704015
0.704395
0.704807
0.705249
0.705721
0.706221
0.70675
0.707306
0.707888
0.708495
0.709127
0.709782
0.710459
0.711158
0.711877
0.712615
0.713372
0.714145
0.714934
0.715738
0.716556
0.717387
0.718229
0.719083
0.719945
0.720817
0.721695
0.722581
0.723473
0.724369
0.725269
0.726173
0.727079
0.727987
0.728896
0.729804
0.730713
0.73162
0.732525
0.733428
0.734328
0.735225
0.736118
0.737006
0.737889
0.738767
0.739639
0.740506
0.741365
0.742218
0.743064
0.743902
0.744732
0.745554
0.746367
0.747172
0.747967
0.748752
0.749528
0.750293
0.751048
0.751792
0.752525
0.753247
0.753957
0.754655
0.755342
0.756016
0.756677
0.757326
0.757961
0.758583
0.759191
0.759785
0.760365
0.76093
0.76148
0.762015
0.762534
0.763036
0.763521
0.763989
0.76444
0.764873
0.765288
0.765685
0.766063
0.766423
0.766763
0.767085
0.767386
0.767668
0.76793
0.768171
0.768392
0.768592
0.768771
0.768928
0.769063
0.769176
0.769265
0.769331
0.769374
0.769391
0.769385
0.769353
0.769296
0.769213
0.769105
0.768971
0.76881
0.768624
0.76841
0.76817
0.767902
0.767608
0.767286
0.766938
0.766562
0.76616
0.765731
0.765276
0.764794
0.764286
0.763752
0.763191
0.762603
0.761988
0.761346
0.760676
0.759978
0.759251
0.758494
0.757704
0.75689
0.75602
0.755234
0.754158
0.715621
0.71541
0.715247
0.715097
0.714922
0.714716
0.714482
0.714224
0.713945
0.713649
0.713338
0.713015
0.712682
0.712344
0.712002
0.711659
0.711319
0.710982
0.710654
0.710334
0.710027
0.709735
0.709459
0.709202
0.708966
0.708753
0.708564
0.708401
0.708266
0.708159
0.708082
0.708035
0.708019
0.708035
0.708082
0.708162
0.708274
0.70842
0.708598
0.708809
0.709053
0.70933
0.709638
0.709977
0.710348
0.710748
0.711177
0.711635
0.712121
0.712633
0.713172
0.713736
0.714325
0.714937
0.715572
0.716228
0.716905
0.717601
0.718316
0.719049
0.719798
0.720563
0.721342
0.722136
0.722941
0.723759
0.724586
0.725424
0.72627
0.727124
0.727985
0.728852
0.729724
0.730601
0.731481
0.732364
0.733249
0.734136
0.735023
0.73591
0.736797
0.737682
0.738566
0.739448
0.740326
0.741201
0.742073
0.74294
0.743802
0.74466
0.745512
0.746357
0.747197
0.74803
0.748856
0.749674
0.750485
0.751287
0.752081
0.752866
0.753642
0.754409
0.755165
0.755911
0.756647
0.757372
0.758086
0.758789
0.759479
0.760158
0.760825
0.761479
0.762121
0.762749
0.763363
0.763964
0.764551
0.765123
0.76568
0.766222
0.766747
0.767256
0.767749
0.768224
0.768682
0.769121
0.769543
0.769946
0.770331
0.770696
0.771043
0.771369
0.771676
0.771962
0.772228
0.772473
0.772697
0.7729
0.773081
0.77324
0.773377
0.77349
0.77358
0.773646
0.773687
0.773703
0.773694
0.77366
0.773599
0.773513
0.773401
0.773261
0.773095
0.772902
0.772682
0.772435
0.77216
0.771858
0.771528
0.77117
0.770785
0.770373
0.769934
0.769468
0.768975
0.768456
0.76791
0.767337
0.766736
0.766109
0.765454
0.764772
0.764061
0.763321
0.76255
0.761747
0.760918
0.760032
0.759228
0.758119
0.723594
0.723376
0.7232
0.723031
0.722834
0.722603
0.722343
0.722056
0.721748
0.721419
0.721075
0.720717
0.720349
0.719974
0.719595
0.719215
0.718836
0.718462
0.718096
0.717739
0.717394
0.717063
0.71675
0.716455
0.716182
0.715931
0.715705
0.715504
0.715331
0.715186
0.71507
0.714983
0.714928
0.714903
0.71491
0.714949
0.715019
0.715122
0.715258
0.715425
0.715625
0.715856
0.716118
0.716411
0.716734
0.717086
0.717468
0.717877
0.718314
0.718778
0.719268
0.719782
0.720322
0.720885
0.72147
0.722077
0.722706
0.723354
0.724021
0.724707
0.72541
0.726129
0.726863
0.727612
0.728374
0.729149
0.729936
0.730733
0.73154
0.732355
0.733179
0.73401
0.734848
0.735691
0.736539
0.737391
0.738246
0.739104
0.739964
0.740825
0.741687
0.742548
0.74341
0.74427
0.745129
0.745985
0.746839
0.747689
0.748536
0.749379
0.750218
0.751052
0.75188
0.752703
0.75352
0.75433
0.755133
0.755929
0.756718
0.757498
0.75827
0.759033
0.759787
0.760531
0.761266
0.76199
0.762704
0.763407
0.764099
0.76478
0.765449
0.766105
0.766749
0.767381
0.767999
0.768603
0.769194
0.76977
0.770332
0.770878
0.771408
0.771922
0.772419
0.772899
0.773362
0.773806
0.774233
0.77464
0.775029
0.775399
0.775749
0.776079
0.776389
0.776679
0.776947
0.777195
0.777421
0.777626
0.777808
0.777968
0.778104
0.778217
0.778306
0.77837
0.778409
0.778423
0.778411
0.778373
0.778309
0.778218
0.7781
0.777956
0.777783
0.777584
0.777356
0.777101
0.776818
0.776507
0.776167
0.7758
0.775406
0.774983
0.774533
0.774055
0.773551
0.773019
0.77246
0.771875
0.771262
0.770622
0.769954
0.769258
0.768534
0.767781
0.766996
0.766179
0.765335
0.764433
0.763613
0.762473
0.732611
0.732388
0.732197
0.732007
0.731786
0.73153
0.731241
0.730924
0.730583
0.730221
0.72984
0.729446
0.72904
0.728626
0.728207
0.727787
0.727368
0.726953
0.726545
0.726147
0.725761
0.725389
0.725035
0.724699
0.724384
0.724092
0.723824
0.723581
0.723365
0.723177
0.723018
0.722888
0.722788
0.722719
0.72268
0.722672
0.722696
0.722752
0.722839
0.722957
0.723106
0.723286
0.723497
0.723738
0.724008
0.724307
0.724634
0.724989
0.725371
0.72578
0.726214
0.726674
0.727157
0.727664
0.728194
0.728746
0.729319
0.729912
0.730525
0.731157
0.731806
0.732472
0.733154
0.733852
0.734563
0.735288
0.736026
0.736775
0.737535
0.738305
0.739084
0.739872
0.740667
0.741469
0.742277
0.743091
0.743909
0.74473
0.745555
0.746383
0.747213
0.748044
0.748876
0.749707
0.750539
0.75137
0.752199
0.753026
0.753851
0.754673
0.755492
0.756308
0.757119
0.757925
0.758726
0.759522
0.760312
0.761096
0.761873
0.762643
0.763405
0.76416
0.764906
0.765643
0.766372
0.76709
0.7678
0.768499
0.769187
0.769865
0.770531
0.771186
0.771829
0.772459
0.773077
0.773682
0.774273
0.77485
0.775412
0.775959
0.776491
0.777006
0.777505
0.777987
0.778451
0.778898
0.779326
0.779736
0.780127
0.780498
0.78085
0.781182
0.781493
0.781783
0.782053
0.782301
0.782528
0.782732
0.782914
0.783073
0.783208
0.783319
0.783406
0.783467
0.783503
0.783514
0.783498
0.783455
0.783386
0.783289
0.783166
0.783014
0.782835
0.782628
0.782392
0.782128
0.781836
0.781516
0.781167
0.780789
0.780384
0.77995
0.779489
0.778999
0.778482
0.777938
0.777367
0.776768
0.776142
0.775488
0.774807
0.774098
0.773361
0.772594
0.771796
0.770965
0.770107
0.76919
0.768354
0.767188
0.742732
0.742503
0.742296
0.742083
0.741836
0.741551
0.741231
0.740882
0.740505
0.740106
0.739687
0.739252
0.738805
0.738349
0.737887
0.737424
0.736961
0.736501
0.736049
0.735606
0.735176
0.734759
0.73436
0.733979
0.733618
0.73328
0.732966
0.732677
0.732414
0.732179
0.731971
0.731793
0.731643
0.731524
0.731435
0.731376
0.731348
0.73135
0.731383
0.731446
0.73154
0.731664
0.731817
0.731999
0.732211
0.73245
0.732717
0.733012
0.733333
0.73368
0.734052
0.734449
0.73487
0.735315
0.735782
0.736271
0.736782
0.737313
0.737864
0.738433
0.739021
0.739627
0.740249
0.740887
0.74154
0.742207
0.742887
0.74358
0.744285
0.745001
0.745727
0.746463
0.747208
0.74796
0.74872
0.749486
0.750258
0.751036
0.751817
0.752603
0.753392
0.754184
0.754978
0.755773
0.75657
0.757367
0.758163
0.758959
0.759754
0.760548
0.761339
0.762128
0.762914
0.763697
0.764476
0.76525
0.76602
0.766785
0.767543
0.768296
0.769042
0.769782
0.770513
0.771238
0.771954
0.772661
0.77336
0.774049
0.774728
0.775398
0.776056
0.776704
0.77734
0.777965
0.778577
0.779177
0.779764
0.780337
0.780896
0.78144
0.781969
0.782482
0.782978
0.783458
0.783921
0.784366
0.784793
0.785202
0.785591
0.785961
0.786312
0.786642
0.786952
0.787241
0.787509
0.787755
0.78798
0.788182
0.788361
0.788517
0.788649
0.788757
0.78884
0.788897
0.788929
0.788934
0.788913
0.788864
0.788789
0.788686
0.788555
0.788397
0.78821
0.787994
0.78775
0.787477
0.787175
0.786845
0.786486
0.786097
0.785681
0.785236
0.784762
0.78426
0.783731
0.783174
0.782589
0.781977
0.781338
0.780671
0.779977
0.779254
0.778504
0.777723
0.776912
0.776068
0.775197
0.774267
0.773415
0.772227
0.754024
0.753786
0.753561
0.753322
0.753046
0.752729
0.752375
0.751988
0.751573
0.751132
0.75067
0.750191
0.749699
0.749196
0.748687
0.748176
0.747664
0.747157
0.746656
0.746164
0.745684
0.745218
0.744769
0.744338
0.743927
0.743539
0.743174
0.742834
0.742519
0.742231
0.741971
0.741739
0.741535
0.741361
0.741216
0.7411
0.741014
0.740958
0.740931
0.740934
0.740966
0.741027
0.741117
0.741235
0.741381
0.741555
0.741755
0.741982
0.742235
0.742514
0.742817
0.743145
0.743496
0.743871
0.744268
0.744687
0.745127
0.745588
0.746068
0.746568
0.747087
0.747623
0.748177
0.748746
0.749332
0.749932
0.750547
0.751174
0.751815
0.752468
0.753131
0.753806
0.75449
0.755184
0.755886
0.756595
0.757312
0.758035
0.758765
0.759499
0.760238
0.760982
0.761728
0.762478
0.76323
0.763983
0.764738
0.765494
0.76625
0.767006
0.767761
0.768515
0.769268
0.770018
0.770766
0.771511
0.772252
0.772989
0.773722
0.77445
0.775172
0.775889
0.776599
0.777303
0.777999
0.778688
0.779369
0.780041
0.780705
0.78136
0.782004
0.782639
0.783262
0.783875
0.784477
0.785066
0.785643
0.786207
0.786757
0.787293
0.787814
0.788319
0.788809
0.789283
0.78974
0.790179
0.790601
0.791004
0.791389
0.791754
0.7921
0.792426
0.792731
0.793015
0.793279
0.79352
0.79374
0.793938
0.794112
0.794263
0.79439
0.794492
0.794569
0.79462
0.794646
0.794644
0.794616
0.794561
0.794478
0.794368
0.794229
0.794062
0.793866
0.793641
0.793388
0.793105
0.792793
0.792453
0.792083
0.791683
0.791255
0.790798
0.790312
0.789798
0.789256
0.788686
0.788089
0.787463
0.786811
0.78613
0.785423
0.784687
0.783923
0.78313
0.782307
0.781451
0.780568
0.779624
0.77876
0.777554
0.766559
0.766311
0.766063
0.765795
0.765485
0.76513
0.764736
0.764307
0.763846
0.763358
0.762848
0.762318
0.761774
0.761219
0.760657
0.760092
0.759527
0.758965
0.758409
0.757863
0.757328
0.756808
0.756304
0.755818
0.755353
0.754909
0.754488
0.754091
0.75372
0.753374
0.753056
0.752764
0.752501
0.752266
0.752059
0.751881
0.751731
0.75161
0.751518
0.751454
0.751419
0.751411
0.751431
0.751478
0.751553
0.751653
0.75178
0.751933
0.752111
0.752314
0.75254
0.752791
0.753065
0.753361
0.75368
0.754021
0.754382
0.754764
0.755166
0.755587
0.756027
0.756485
0.75696
0.757453
0.757961
0.758485
0.759024
0.759576
0.760143
0.760722
0.761313
0.761916
0.76253
0.763154
0.763788
0.764431
0.765082
0.765741
0.766407
0.76708
0.767759
0.768443
0.769132
0.769825
0.770523
0.771223
0.771926
0.772632
0.773339
0.774047
0.774756
0.775466
0.776175
0.776884
0.777591
0.778297
0.779
0.779701
0.780399
0.781093
0.781783
0.782468
0.783148
0.783823
0.784492
0.785155
0.78581
0.786458
0.787099
0.787731
0.788354
0.788968
0.789573
0.790167
0.790751
0.791324
0.791884
0.792433
0.792968
0.79349
0.793998
0.794491
0.794969
0.795431
0.795877
0.796305
0.796717
0.797111
0.797486
0.797842
0.798179
0.798497
0.798794
0.79907
0.799325
0.79956
0.799772
0.799962
0.800128
0.800271
0.80039
0.800485
0.800554
0.800597
0.800614
0.800605
0.800568
0.800505
0.800413
0.800293
0.800145
0.799969
0.799763
0.799529
0.799265
0.798972
0.79865
0.798298
0.797917
0.797506
0.797066
0.796597
0.796099
0.795573
0.795018
0.794435
0.793824
0.793186
0.79252
0.791827
0.791106
0.790358
0.789582
0.788776
0.787941
0.787073
0.786179
0.785226
0.784349
0.78313
0.78042
0.780157
0.779883
0.779579
0.779228
0.778829
0.778386
0.777905
0.77739
0.776846
0.776277
0.775689
0.775084
0.774468
0.773845
0.773218
0.772591
0.771968
0.771352
0.770744
0.770149
0.769567
0.769003
0.768456
0.767929
0.767424
0.766941
0.766482
0.766048
0.765639
0.765257
0.764901
0.764572
0.76427
0.763995
0.763748
0.763529
0.763337
0.763173
0.763036
0.762926
0.762842
0.762785
0.762755
0.76275
0.762771
0.762816
0.762887
0.762982
0.763101
0.763243
0.763408
0.763596
0.763806
0.764038
0.764291
0.764564
0.764858
0.765172
0.765505
0.765857
0.766227
0.766614
0.767019
0.76744
0.767877
0.768329
0.768797
0.769278
0.769773
0.770281
0.770802
0.771334
0.771878
0.772432
0.772997
0.773571
0.774155
0.774747
0.775346
0.775954
0.776568
0.777188
0.777814
0.778446
0.779082
0.779722
0.780366
0.781014
0.781664
0.782317
0.782971
0.783627
0.784283
0.78494
0.785597
0.786253
0.786907
0.78756
0.788211
0.788859
0.789504
0.790145
0.790782
0.791415
0.792042
0.792664
0.793279
0.793888
0.79449
0.795084
0.79567
0.796248
0.796816
0.797375
0.797923
0.798461
0.798987
0.799502
0.800003
0.800491
0.800966
0.801426
0.801871
0.8023
0.802713
0.803109
0.803488
0.803849
0.804192
0.804516
0.80482
0.805105
0.805369
0.805613
0.805836
0.806037
0.806216
0.806372
0.806504
0.806613
0.806696
0.806755
0.806788
0.806795
0.806776
0.806729
0.806655
0.806553
0.806423
0.806264
0.806077
0.805861
0.805616
0.805341
0.805037
0.804703
0.80434
0.803947
0.803525
0.803073
0.802592
0.802082
0.801543
0.800976
0.80038
0.799757
0.799105
0.798427
0.797721
0.796988
0.796227
0.795439
0.794622
0.793776
0.792898
0.791994
0.791031
0.790145
0.788916
0.796185
0.795899
0.795588
0.795237
0.794833
0.794374
0.793868
0.793319
0.792733
0.792115
0.791472
0.790807
0.790127
0.789435
0.788736
0.788034
0.787333
0.786636
0.785947
0.785267
0.7846
0.783947
0.783311
0.782694
0.782096
0.78152
0.780966
0.780435
0.779929
0.779447
0.778991
0.77856
0.778156
0.777777
0.777425
0.777099
0.7768
0.776526
0.776279
0.776057
0.775862
0.775691
0.775546
0.775426
0.775331
0.77526
0.775213
0.775189
0.775189
0.775211
0.775256
0.775323
0.775412
0.775523
0.775654
0.775806
0.775978
0.77617
0.776382
0.776613
0.776862
0.777129
0.777414
0.777717
0.778036
0.778371
0.778723
0.779089
0.779471
0.779866
0.780276
0.780699
0.781135