/*--------------------------------*- C++ -*----------------------------------*\
  =========                 |
  \\      /  F ield         | OpenFOAM: The Open Source CFD Toolbox
   \\    /   O peration     | Website:  https://openfoam.org
    \\  /    A nd           | Version:  7
     \\/     M anipulation  |
\*---------------------------------------------------------------------------*/
FoamFile
{
    version     2.0;
    format      ascii;
    class       surfaceScalarField;
    location    "2.5";
    object      alphaPhi0.water;
}
// * * * * * * * * * * * * * * * * * * * * * * * * * * * * * * * * * * * * * //

dimensions      [0 3 -1 0 0 0 0];

internalField   nonuniform List<scalar> 
11840
(
0
0
0
0
0
0
0
0
0
0
0
0
0
0
0
0
0
0
0
0
0
0
0
0
0
0
0
0
0
0
0
0
0
0
0
0
0
0
0
0
0
0
0
0
0
0
0
0
0
0
0
0
0
0
0
0
0
0
0
0
0
0
0
0
0
0
0
0
0
0
0
0
0
0
0
0
0
0
0
0
0
0
0
0
0
0
0
0
0
0
0
0
0
0
0
0
0
0
0
0
0
0
0
0
0
0
0
0
0
0
0
0
0
0
0
0
0
0
0
0
0
0
0
0
0
0
0
0
0
0
0
0
0
0
0
0
0
0
0
0
0
0
0
0
0
0
0
0
0
0
0
0
0
0
0
0
0
0
0
0
0
0
0
0
0
0
0
0
0
0
0
0
0
0
0
0
0
0
0
0
0
0
0
0
0
0
0
0
0
0
0
0
0
0
0
0
0
0
0
0
0
0
0
0
0
0
0
0
0
0
0
0
0
0
0
0
0
0
0
0
0
0
0
0
0
0
0
0
0
0
0
0
0
0
0
0
0
7.6051477937621e-207
-1.2734563935163e-224
1.242249678829e-206
6.2112483941452e-207
2.016679438244e-206
1.008339632396e-206
3.952006173366e-207
1.6480090968385e-206
7.1854657697565e-208
3.2334595963904e-207
1.9720593355326e-187
-4.1436462748093e-199
3.9094354957041e-187
1.48362119412e-187
7.1080645376439e-188
3.1986290419397e-187
1.2923753704807e-188
5.8156891671632e-188
6.7099844322784e-189
3.0194929945253e-188
1.5390683021569e-188
0
4.4801345401563e-188
0
8.1456991639207e-189
3.6655646237643e-188
8.4716548537246e-189
4.2358274268623e-189
1.3787747562381e-188
1.9650414426225e-189
2.1471838050918e-188
0
2.7037179772433e-188
0
4.9158508677151e-189
2.2121328904717e-188
8.937910668573e-190
4.0220598008578e-189
9.7758155399176e-190
0
9.436551517159e-190
0
1.7157366394835e-190
7.7208148776755e-190
1.4867318973694e-190
0
2.703148904308e-191
1.2164170069386e-190
1.5881564871927e-191
7.9407824359633e-192
2.8875572494412e-192
1.2994007622485e-191
2.1653411140297e-192
4.2425342086567e-194
1.5229883077888e-192
0
2.7690696505252e-193
1.2460813427363e-192
1.8322318069929e-193
0
3.3313305581689e-194
1.499098751176e-193
2.0889029704334e-194
0
1.2477617743695e-194
0
2.2686577715811e-195
1.0208959972114e-194
1.2963143045269e-195
0
2.3569350991412e-196
1.0606207946128e-195
4.2853365439121e-197
1.92840144475e-196
2.3507071664287e-197
0
4.2740130301919e-198
1.9233058634205e-197
2.2577217900025e-198
0
4.1049487165241e-199
1.847226918188e-198
2.0938989676544e-199
0
3.8070898434114e-200
1.7131898622347e-199
1.5996765083291e-200
7.9983825416455e-201
2.9085042554308e-201
1.3088260481387e-200
1.2065552164424e-201
6.0327760822119e-202
4.9179681694653e-202
2.4589840847327e-202
8.9436520109561e-203
4.021914025276e-202
3.5738472522661e-203
1.786923626133e-203
1.6243613429641e-203
0
6.2177269822382e-204
3.1088634911191e-204
2.690607083498e-204
0
5.5320875785866e-205
2.1246863832044e-204
2.461697319183e-205
0
7.8841627656991e-206
1.1590828817475e-205
3.0352006315896e-206
1.5176003157948e-206
1.1195143600864e-206
7.1901299015794e-207
4.7525283019828e-207
0
1.9551402955614e-207
0
6.9309677710718e-208
3.4657546238205e-208
2.7175494570827e-208
0
9.3045657361705e-209
4.652555460788e-209
3.5058662189075e-209
0
1.1711990670101e-209
5.8559953350507e-210
4.294530236582e-210
0
1.5444017105133e-210
0
4.948939814255e-211
2.4744703908944e-211
1.7234040021451e-211
0
5.393103965122e-212
2.6965519825611e-212
1.8295586660541e-212
0
5.614620352478e-213
2.807310178226e-213
1.7094584524175e-213
8.5472922620877e-214
5.6203524550852e-214
0
1.6834016972467e-214
8.4170084862337e-215
5.4294710918978e-215
0
1.6016703567329e-215
8.0083517836686e-216
5.0740899590791e-216
0
1.5921615805287e-216
0
4.7058996699168e-217
2.3529498349584e-217
1.371498745134e-217
3.1781902758335e-218
2.694446797166e-218
0
0
0
0
0
0
0
0
0
0
0
0
0
0
0
0
0
0
0
0
0
0
0
0
0
0
0
0
0
0
0
0
0
0
0
0
0
0
2.4777990466936e-149
1.2388995233468e-149
1.3586000621222e-145
6.7930003106109e-146
1.2350909924363e-145
1.2350910402153e-146
0
5.7469030222884e-139
2.4420823858493e-122
0
2.7605465575926e-122
1.3908910610552e-122
2.7404818460661e-122
0
9.7708791641705e-122
4.6594685419035e-122
1.4682647325103e-122
3.1872655628368e-121
1.600368747467e-122
5.8576280788309e-123
6.5082571785284e-122
0
1.6542565681473e-121
5.5507885768179e-122
2.6281982840321e-120
0
2.413301803238e-121
2.3868681037083e-120
2.413301803238e-121
0
4.684461961351e-121
0
7.7456662730054e-121
0
9.501770893947e-121
0
4.5021055328487e-122
1.1629406385216e-120
7.3453211043674e-122
0
6.7217569416557e-122
0
6.7217569416557e-122
0
1.3831329929344e-122
0
1.3827957134535e-122
0
2.7291960514791e-124
1.3555037529387e-122
2.0189351901934e-124
0
2.0189351901934e-124
0
4.8068712079672e-125
0
2.4773304655834e-125
0
1.2883284811873e-125
0
5.9901342972821e-126
0
3.8300108251383e-126
0
6.9738149270092e-127
0
2.6197391079694e-127
0
1.6825831230633e-127
0
9.0817092652018e-128
0
1.1798476975369e-128
7.9018615676649e-128
6.694505023316e-129
0
2.0842684699212e-130
6.4860781763239e-129
2.0834247827307e-130
0
4.9069540315996e-132
2.0343552424147e-130
4.9041642392139e-132
0
2.7583709285684e-132
0
1.0300836944674e-133
2.6553625591217e-132
9.2443171135887e-134
0
1.6807849297434e-134
7.5635321838452e-134
2.1671369035817e-135
1.4640712393852e-134
1.2078884180817e-135
0
3.7606824364844e-137
1.1702815937168e-135
3.7590967953168e-137
0
6.917291944369e-139
3.6899238758731e-137
4.5759382561939e-139
0
3.1106273549822e-139
0
3.8769475099228e-140
0
3.8752246616237e-140
0
7.0458630211341e-141
3.1706383595103e-140
2.3000031082381e-142
6.8158627103103e-141
5.888391073927e-143
0
5.8857405245298e-143
0
2.3497119567516e-144
5.6507693288546e-143
2.0882073185594e-144
0
2.6608556591346e-145
1.822121752646e-144
1.4409706277689e-145
0
3.2955668963864e-147
1.4080149588051e-145
3.2935755190136e-147
0
1.5896348362576e-147
0
4.9385569705674e-148
0
2.6334045249549e-148
0
6.0418763217037e-150
2.5729857617378e-148
6.0376303448542e-150
0
2.9950561925427e-150
0
3.7431663483178e-151
2.6207395577109e-150
1.9283637212866e-151
0
5.4712585336933e-153
1.8736511359497e-151
3.2723742124081e-153
0
1.2068854714984e-153
0
3.658296078762e-154
0
2.2398366939095e-154
0
2.9964090159485e-155
2.3349742726507e-154
1.5894922088608e-155
0
0
0
0
0
0
0
0
0
0
0
0
0
0
0
0
0
0
0
0
0
0
0
0
0
0
0
0
0
0
0
0
0
0
0
0
-2.5703121065267e-87
-1.2851560532634e-87
-3.1370755145421e-86
-1.568537757271e-86
-3.263357488818e-85
-1.631678744409e-85
-2.1198614803747e-84
-1.0599307401873e-84
-9.4746767177259e-84
-4.7373383588629e-84
-3.313322647045e-83
-1.6566613235225e-83
1.6644470585523e-70
1.0866404964969e-70
8.5535270223883e-72
1.5972942504377e-70
5.8088647999284e-72
2.9491212950648e-72
1.0311069447389e-72
4.7499702238026e-72
1.705938772826e-73
8.6024306291416e-73
1.75021064475e-74
1.5336177519599e-73
1.1688009467643e-71
1.1591269220898e-71
1.0625486541575e-72
1.0625460813485e-71
3.2070193440337e-69
1.18694596822e-68
5.9181534354254e-68
4.2655870732905e-68
2.2115031431697e-66
1.9703303072452e-66
1.3570801432474e-65
8.7537265156223e-66
4.2543903841291e-61
0
9.4989499529782e-61
7.9654595556623e-61
1.0578493426954e-61
8.4413516685684e-61
4.7401827517648e-62
1.4531013043413e-61
1.5518572483178e-61
1.3690633482723e-61
8.9357508314875e-61
6.2848802032441e-61
5.5423311385055e-60
3.8087700908122e-60
2.357235052278e-59
1.6809252279156e-59
7.9033889658784e-59
5.6698742934072e-59
3.1373329930744e-58
2.1370873913863e-58
1.0445651492883e-57
7.5457703997268e-58
3.6636952808598e-57
2.7553319305457e-57
8.6774435815666e-57
6.6295830759939e-57
2.4544301135533e-56
1.6738390446462e-56
6.5338320943269e-56
4.5429225405304e-56
1.55108188854e-55
9.5758873693463e-56
3.4151767571601e-55
2.7592096709781e-55
6.6040333592899e-55
5.3400895849857e-55
1.5081665255226e-54
1.1067112248687e-54
2.9146834640493e-54
2.440657816985e-54
4.8014869508579e-54
4.1033810936818e-54
7.2496781169016e-54
6.6199574624415e-54
7.900923119037e-54
7.8973258320431e-54
8.3551200554911e-54
8.3547892440759e-54
7.9959765447463e-54
8.6466650188211e-54
7.3714433988629e-54
8.0757654569191e-54
6.8776882147948e-54
7.17486429566e-54
5.5118240939937e-54
6.430045340928e-54
4.189848394425e-54
4.8686208497869e-54
2.4638045549992e-54
3.4430171274153e-54
9.9464523602518e-55
1.7262158755103e-54
2.5597701473332e-55
5.7678349812289e-55
3.6636947981553e-56
1.5075224284442e-55
8.1889862625873e-57
2.1547118527662e-56
1.5126429999414e-57
6.3878221956911e-57
2.4858081215893e-58
1.2245412759079e-57
5.9404722671185e-59
1.6576816329557e-58
1.0946925009455e-59
4.6542889618029e-59
2.7814081975424e-60
7.1952425793296e-60
5.1596716124792e-61
2.1844034447241e-60
8.3731570968828e-62
4.193229646268e-61
2.1749998442996e-62
5.5034895122831e-62
4.0862008114008e-63
1.7044644620464e-62
7.8398926437045e-64
3.229484979371e-63
1.4916145987999e-64
6.1717219785974e-64
2.6779263640584e-65
1.1871395881775e-64
4.5772376737483e-66
2.1518154388137e-65
1.1752541301492e-66
3.0080539443034e-66
2.7370361291283e-67
7.5734881808677e-67
4.5560819512218e-68
2.1914358169519e-67
1.1658812550578e-68
3.0343524184618e-68
2.1795528620189e-69
9.1653909764023e-69
3.5563393525952e-70
1.7723529033876e-69
9.1961168496403e-71
2.3489901425178e-70
2.1907499561566e-71
5.9609941106197e-71
3.4198392821517e-72
1.7612173365884e-71
6.9314215200814e-73
2.604083021021e-72
1.7608007397095e-73
4.5732323208601e-73
4.3631289790581e-74
1.1244637175355e-73
1.0188996510487e-74
3.0119288589962e-74
2.4104939212553e-75
6.6325389923744e-75
4.1940409215794e-76
1.8443842479883e-75
1.006572296284e-76
2.7466465412368e-76
2.9461875484178e-77
6.1036774879402e-77
2.387078314044e-77
0
0
0
0
0
0
0
0
0
0
0
0
0
0
0
0
0
0
6.6318944106106e-65
3.3388790086028e-65
5.4998403505921e-63
2.8479106783083e-63
1.2124260418234e-61
6.3676517657645e-62
2.2194543254955e-60
1.178483518245e-60
3.2829381378067e-59
1.7866276862739e-59
3.9919884031935e-58
2.1397215731398e-58
1.0469039839269e-56
5.6992863120764e-57
7.7219021141252e-56
4.4071294629568e-56
6.1474578800675e-55
3.480842102148e-55
4.2376592748071e-54
2.5407904272269e-54
1.1508068323578e-53
1.1523687690485e-53
1.0100965045477e-53
1.1066916377726e-53
9.8103281064276e-55
9.119932234834e-54
4.6624931099483e-52
3.5414132408721e-52
8.4772585616458e-53
3.8147669302607e-52
1.5405432429767e-53
6.9367153183056e-53
2.8023616003762e-54
1.2603070829391e-53
5.0952702024945e-55
2.2928345801267e-54
9.2641306578079e-56
4.1688571367137e-55
1.6843873907232e-56
7.5797432670847e-56
3.0626957929159e-57
1.3781178114316e-56
1.4872588413006e-52
0
2.7041082034022e-53
1.2168480209604e-52
4.9165750039886e-54
2.2124507030033e-53
5.4741452233636e-52
0
3.11189233572e-52
2.3622528876439e-52
8.5059325872963e-45
4.0357395772555e-45
1.2789172132829e-44
7.1746481373431e-45
4.5688094195137e-46
1.2332291499359e-44
5.181155829543e-46
0
3.042770777527e-47
4.8768787517903e-46
1.9125053439152e-47
1.1113000075785e-47
8.1227887231482e-49
1.1864865361348e-47
8.1136608715183e-49
0
2.2378027928854e-50
7.8898805936454e-49
2.9378320164726e-50
0
5.7687031962697e-51
2.5959161677445e-50
1.4673766791552e-51
4.6938048853894e-51
1.4673935250243e-51
2.4618523997806e-57
4.2767050883438e-51
0
2.0955356939128e-48
0
6.4501189123324e-49
1.4512745057105e-48
1.6687385968105e-49
7.5093181102433e-49
3.0343028528061e-50
1.3653262463626e-49
2.4172495930726e-48
0
2.4174443966678e-48
0
4.3953977786866e-49
1.9779151390607e-48
5.1285228729066e-49
0
9.3253681498834e-50
4.1961563922657e-49
1.0698858847094e-49
0
5.5243597060673e-51
1.0148174101434e-49
5.5404001987762e-51
0
5.9166045604842e-51
0
1.0817447156076e-51
4.8467130593996e-51
1.153189791111e-51
0
2.1211207748926e-52
9.4573410825308e-52
3.9979748574832e-53
1.7420619713915e-52
4.1564798042342e-53
0
7.6415287365904e-54
3.4015507230285e-53
7.398879193943e-54
0
9.0407986251386e-55
6.4996488783569e-54
9.0501754348249e-55
0
3.4010002123159e-55
0
3.4009661528493e-55
0
2.7371878409068e-55
0
4.68388572759e-56
2.2688160694158e-55
8.5175361893739e-57
3.832164636e-56
2.6454290389694e-57
0
2.6450307269207e-57
0
8.7483741159073e-59
2.5575495342654e-57
8.7470089809522e-59
0
4.6365185032739e-60
8.2833663483131e-59
4.7005669839547e-60
0
2.2421849126655e-60
0
1.3544188724207e-60
0
1.3544190405603e-60
0
2.6829714808942e-61
0
2.6788078680408e-61
0
5.2130573450238e-63
2.6266773085375e-61
3.9449591013361e-63
0
3.0000694539976e-63
0
1.2404797819949e-64
2.8760214894502e-63
1.1642067989089e-64
0
4.2029878023716e-65
0
1.8652475162621e-65
0
1.8071980134562e-65
0
2.9477501023552e-66
0
2.9157975492502e-66
0
4.8000839493359e-67
0
3.29252600597e-67
0
1.899113549152e-67
0
0
0
0
0
0
0
0
0
0
0
0
0
0
1.7014010711449e-55
8.5166285868138e-56
1.8924690698316e-53
9.5424535126047e-54
1.0324053582694e-51
5.2491298998838e-52
3.6821407276451e-50
1.8889302968742e-50
9.6819438085917e-49
5.0133419665515e-49
2.0062188334302e-47
1.0489308491997e-47
3.4054934290052e-46
1.7988192823491e-46
4.8415969625856e-45
2.5855916171281e-45
5.8549001041549e-44
3.1631139673667e-44
6.1334039942922e-43
3.3513802608777e-43
5.7154163136948e-42
3.153735221236e-42
4.8950663341871e-41
2.7207883742742e-41
3.9679062085392e-40
2.2164759420564e-40
3.0920940247205e-39
1.7343066801079e-39
2.3156364266755e-38
1.3049833969156e-38
1.6495136486771e-37
9.3554011419979e-38
1.1040053310808e-36
6.3136084913319e-37
6.8754187622025e-36
3.9716628834826e-36
3.9604060458354e-35
2.314315887549e-35
2.1039969205373e-34
1.2452555357872e-34
1.0300922597548e-33
6.1808015918484e-34
4.6497188742661e-33
2.8308011631949e-33
1.9371763243247e-32
1.1975204509058e-32
7.4593579885814e-32
4.6853193233271e-32
2.658670225959e-31
1.6978735299761e-31
8.7842300961241e-31
5.7071386019629e-31
2.6943735373142e-30
1.7820082643329e-30
7.6835795934508e-30
5.1761456580502e-30
2.0401850281683e-29
1.4006935550473e-29
5.0518889309061e-29
3.5365299346921e-29
1.1685354298748e-28
8.344642785229e-29
2.5293837829211e-28
1.8432513665754e-28
5.1332814263425e-28
3.8185883629741e-28
9.7859278279475e-28
7.4330872639221e-28
1.7553245647807e-27
1.3618546038619e-27
2.9656115705413e-27
2.3514768759848e-27
4.7181990190571e-27
3.8276814057533e-27
7.0502414109599e-27
5.8654334486424e-27
9.8132472253164e-27
8.4193995038607e-27
1.2442272584564e-26
1.1162745639712e-26
1.3896107978067e-26
1.3264271516334e-26
1.4096599750155e-26
1.3978835087714e-26
1.4014935482403e-26
1.3951459903984e-26
1.3411406952355e-26
1.3585320639639e-26
1.2015538282647e-26
1.2578316436462e-26
9.8014404671651e-27
1.0774655118694e-26
7.0802658822237e-27
8.316610606506e-27
4.3949752076677e-27
5.6291247367192e-27
2.2724857927262e-27
3.2469197669752e-27
9.5776960986621e-28
1.5565997483434e-27
3.3179283790335e-28
6.1522819891249e-28
9.9689590633901e-29
2.0562314621337e-28
2.8112293566231e-29
6.1624694860218e-29
7.8960859918504e-30
1.7655702817275e-29
2.2586801592665e-30
5.0382224206335e-30
6.5807957618105e-31
1.4541958325163e-30
1.943619507558e-31
4.2537856356443e-31
5.8025801274324e-32
1.2591500991298e-31
1.7492580547411e-32
3.7669436702247e-32
5.3186498103557e-33
1.137832458216e-32
1.6270620264413e-33
3.4641478370843e-33
4.9897627170306e-34
1.0599496422137e-33
1.5278481179075e-34
3.2473667367771e-34
4.6547209629722e-35
9.924531813031e-35
1.4076461558055e-35
3.016503493037e-35
4.2204965068897e-36
9.1003275063328e-36
1.2541922343159e-36
2.7223846883073e-36
3.6944773026938e-37
8.0735342185925e-37
1.0790746870079e-37
2.3737709966906e-37
3.1259528914376e-38
6.9210332179171e-38
8.9837923997728e-39
2.0015578034483e-38
2.5621039293025e-39
5.7430272719988e-39
7.2529188292642e-40
1.6353252555534e-39
2.0386024174273e-40
4.622518441696e-40
5.6909068529011e-41
1.2974436266212e-40
1.5782726818386e-41
3.6170732617888e-41
4.3496180849821e-42
1.0018555602298e-41
1.1915148863128e-42
2.757697889123e-42
3.2451275100988e-43
7.5455513926739e-43
8.7891514468576e-44
2.0527740844179e-43
2.3677644065319e-44
5.5538579252826e-44
6.3459203764878e-45
1.4946653897426e-44
1.69238270971e-45
4.0019882008529e-45
4.4918877045899e-46
1.066282652729e-45
1.1867509887842e-46
2.8275551087759e-46
3.1214825083081e-47
7.4638862742085e-47
8.1751677330516e-48
1.9615714670059e-47
2.1322994915391e-48
5.1331699178935e-48
5.5374926787307e-49
1.3379510353003e-48
1.4365748768469e-49
3.4692483792855e-49
3.6228989350179e-50
9.0543149730588e-50
1.1083100680883e-50
2.1452985181896e-50
9.1409450763629e-51
0
0
0
0
0
0
0
0
0
0
0
0
1.5346950081848e-55
7.6589335231711e-56
2.5422865794223e-53
1.2685403708584e-53
1.8762508167968e-51
9.3960597883467e-52
8.6067126516791e-50
4.3347187351689e-50
2.8109993588625e-48
1.4257125106829e-48
7.0528505961354e-47
3.6055460347139e-47
1.4267456799242e-45
7.3569351948889e-46
2.3982838944597e-44
1.2482819393288e-44
3.4157740025875e-43
1.7959155756591e-43
4.188183617262e-42
2.225905096173e-42
4.4777785168518e-41
2.407103824735e-41
4.2182385336666e-40
2.2939384560225e-40
3.5575123087902e-39
1.9547391628428e-39
2.7618235091658e-38
1.5289226676181e-38
2.0342740280316e-37
1.1312406723096e-37
1.4451783234946e-36
8.0637517525997e-37
9.8939604402573e-36
5.544867403904e-36
6.4690053072008e-35
3.6482216388924e-35
3.9996159281829e-34
2.274002622036e-34
2.318419771185e-33
1.3311928488157e-33
1.2515786998912e-32
7.2692979728838e-33
6.2631637787767e-32
3.6852837381581e-32
2.8971298317235e-31
1.7293162348786e-31
1.2369877470704e-30
7.499157737826e-31
4.8730424878354e-30
3.0035365280642e-30
1.7716187964909e-29
1.1111675386275e-29
5.9479409857963e-29
3.7992488371064e-29
1.8460039510042e-28
1.2016726156198e-28
5.3034956139385e-28
3.5203576017999e-28
1.4129406612439e-27
9.5675770049546e-28
3.4985641326719e-27
2.41725619637e-27
8.0730835529958e-27
5.6917075541666e-27
1.7414200083068e-26
1.2526392572096e-26
3.5223464821727e-26
2.5846886038346e-26
6.6990249398054e-26
5.0146013954129e-26
1.2003089590232e-25
9.1685631158608e-26
2.0279645390399e-25
1.58192941842e-25
3.2294599716041e-25
2.576116070512e-25
4.8355153362125e-25
3.9539523150261e-25
6.7572957469205e-25
5.69393162923e-25
8.6354901269698e-25
7.5951545721699e-25
9.7608241870599e-25
9.1227932304293e-25
9.9543494831036e-25
9.7129566696572e-25
9.9243200693952e-25
9.7262164075709e-25
9.5477713688358e-25
9.5071631071952e-25
8.6527419164312e-25
8.8804662533869e-25
7.1621917291724e-25
7.70263484205e-25
5.2792641884466e-25
6.0483164045398e-25
3.3671293760645e-25
4.188761396756e-25
1.804645747501e-25
2.4903165173421e-25
7.955395214774e-26
1.2409018857749e-25
2.8964334233537e-26
5.1327242370498e-26
9.1102147637259e-27
1.797456978328e-26
2.6614368794158e-27
5.6112855408662e-27
7.6737285280223e-28
1.6601038441312e-27
2.2449142287876e-28
4.861654229994e-28
6.6922189584824e-29
1.4369765404484e-28
2.0269503199684e-29
4.3075146445952e-29
6.2217069961228e-30
1.3092588914303e-29
1.9324213871335e-30
4.0308136258672e-30
6.0607141094376e-31
1.2551178180824e-30
1.9126449027744e-31
3.9423988207882e-31
6.0445181504174e-32
1.2441923223649e-31
1.9035209416005e-32
3.926421662522e-32
5.9494413974761e-33
1.2334571410111e-32
1.8409359722193e-33
3.8439623037018e-33
5.6340403314022e-34
1.1860335530604e-33
1.7054693818317e-34
3.6204434764826e-34
5.1090541193379e-35
1.0934790224747e-34
1.5155652397346e-35
3.269163721077e-35
4.4542552915918e-36
9.6797659780083e-36
1.2975693439067e-36
2.8398808807442e-36
3.7480771984249e-37
8.2589346987617e-37
1.0739153947747e-37
2.381797483287e-37
3.0533336588707e-38
6.814046767171e-38
8.6173961133533e-39
1.9345652486108e-38
2.4150326292315e-39
5.4524577176297e-39
6.7228505811721e-40
1.5260774717815e-39
1.8595007017244e-40
4.2429889857672e-40
5.1117756337762e-41
1.1722088082432e-40
1.3969855116004e-41
3.2188006013753e-41
3.7963090656095e-42
8.7871833888627e-42
1.0260745765431e-42
2.3854768343895e-42
2.7588999941862e-43
6.4412091400847e-43
7.3810624401394e-44
1.7302823255424e-43
1.9652082482002e-44
4.6249706988235e-44
5.2081243640704e-45
1.2303344554041e-44
1.3740625163264e-45
3.2578837781597e-45
3.6096943287263e-46
8.5883287745925e-46
9.440038108463e-47
2.2546486029523e-46
2.4658635740139e-47
5.8872281554526e-47
6.2593455136418e-48
1.5472128146605e-47
1.9296010176896e-48
3.6871800083371e-48
1.5869231045294e-48
0
0
0
0
0
0
0
0
0
0
6.9754625652151e-56
3.4647459707468e-56
1.5631504096268e-53
7.7402114715338e-54
1.4979106798475e-51
7.41678662967e-52
8.5856736441669e-50
4.2614199287169e-50
3.4164707842184e-48
1.7028567264374e-48
1.0243804934754e-46
5.1341792599946e-47
2.4386272026789e-45
1.2303107939211e-45
4.7791175291333e-44
2.4291917619287e-44
7.8943960199288e-43
4.0462024562967e-43
1.1181122250664e-41
5.7834295446617e-42
1.3767724944103e-40
7.1926211527002e-41
1.488017672277e-39
7.8577793300621e-40
1.4231857618624e-38
7.6013637291915e-39
1.2164564263158e-37
6.5737004215077e-38
9.3710961491573e-37
5.1198255109045e-37
6.6438941191729e-36
3.6573445689681e-36
4.5049938939994e-35
2.4867120450728e-35
3.0065042232754e-34
1.6608246852141e-34
1.9587503058862e-33
1.0863889375411e-33
1.2157133280259e-32
6.8062621825423e-33
7.0886118158373e-32
4.0193000956352e-32
3.8676568339868e-31
2.2233741348567e-31
1.9707917106595e-30
1.1491264974339e-30
9.3511535182005e-30
5.533889151722e-30
4.1165439683178e-29
2.474834060851e-29
1.6752643256448e-28
1.0243385623465e-28
6.283193525778e-28
3.9123187938881e-28
2.1665543956607e-27
1.3755826765819e-27
6.8562898805636e-27
4.4446824698186e-27
1.9892770072957e-26
1.3183267416086e-26
5.2909504686627e-26
3.5883821731649e-26
1.2914606889295e-25
8.9697705142102e-26
2.9011036042427e-25
2.0635579655645e-25
6.0283429099089e-25
4.3874746364861e-25
1.1676237392263e-24
8.6779310991116e-25
2.1282253368423e-24
1.6105857703907e-24
3.6855185611584e-24
2.8315763493978e-24
6.1056441179014e-24
4.7532827885037e-24
9.6928559187477e-24
7.648380278487e-24
1.4677901127833e-23
1.1776983029971e-23
2.0963184635935e-23
1.7222212610954e-23
2.7625835284079e-23
2.3555416994568e-23
3.2371861188688e-23
2.9267190429911e-23
3.3602915656253e-23
3.2093917462058e-23
3.3640633386185e-23
3.2411692097763e-23
3.2653641813788e-23
3.1880570871454e-23
3.003734636688e-23
3.013823400147e-23
2.5332730194205e-23
2.6575172704237e-23
1.9104747868426e-23
2.1298960581256e-23
1.2531033480055e-23
1.512104336281e-23
6.954039019105e-24
9.2672299964858e-24
3.1973200717667e-24
4.7916613776644e-24
1.2195476646414e-24
2.0684494632945e-24
4.0092854326283e-25
7.5719800561203e-25
1.2141862260005e-25
2.4606568898939e-25
3.5999478713136e-26
7.5240735583458e-26
1.0788316258204e-26
2.2646145870043e-26
3.2947733974542e-27
6.8642227605645e-27
1.0244697417822e-27
2.1111685426953e-27
3.2364923508438e-28
6.5964377767595e-28
1.0368422618693e-28
2.0923398954561e-28
3.3583488158807e-29
6.7243814401173e-29
1.0946231991642e-29
2.181847742146e-29
3.5689263296878e-30
7.1107155410316e-30
1.1571020707303e-30
2.3140315418284e-30
3.7133607977743e-31
7.4794021173513e-31
1.1764737138122e-31
2.391827313217e-31
3.6769016392782e-32
7.5522685115546e-32
1.134136799548e-32
2.3534352292047e-32
3.455848513387e-33
7.241189145362e-33
1.0413116281701e-33
2.2017518028156e-33
3.105248165184e-34
6.6214067128708e-34
9.1701344173439e-35
1.9709367922808e-34
2.6831478410708e-35
5.8102780391838e-35
7.7822655097418e-36
1.6972573208577e-35
2.2384744817691e-36
4.9150691904711e-36
6.3880141301007e-37
1.4116750314177e-36
1.8093356470839e-37
4.0229414770335e-37
5.0882847756279e-38
1.137955614543e-37
1.4212471540513e-38
3.1962139325721e-38
3.9441110134283e-39
8.9170149900926e-39
1.0877651088011e-39
2.4717780135906e-39
2.9822473503107e-40
6.8097161410745e-40
8.1298527073637e-41
1.8650588022021e-40
2.2042087804083e-41
5.0793300679254e-41
5.94494229182e-42
1.3758461848578e-41
1.5953466821181e-42
3.707451141028e-42
4.2604684412447e-43
9.9405290571659e-43
1.1324764600919e-43
2.6524918404888e-43
2.9968296913701e-44
7.0449320690552e-44
7.8933145406504e-45
1.8630306592322e-44
2.0763009821216e-45
4.8994237717936e-45
5.3055795128638e-46
1.2967648843171e-45
1.6484641989815e-46
3.1085113732202e-46
1.3517116108225e-46
0
0
0
0
0
0
0
0
0
0
3.9619603839585e-54
1.9346811088175e-54
6.3400022462417e-52
3.0972764788881e-52
4.8807869985936e-50
2.3881895147932e-50
2.4138902207818e-48
1.1844434876533e-48
8.6640568178135e-47
4.2678219458434e-47
2.4149062769994e-45
1.1953454113886e-45
5.4594903412123e-44
2.717813088894e-44
1.0322138587788e-42
5.1720307482037e-43
1.6653932430814e-41
8.4059506804913e-42
2.3290111333248e-40
1.1851594945119e-40
2.8570559861445e-39
1.4670627850784e-39
3.0968559473387e-38
1.6059566220067e-38
2.9917298328736e-37
1.5681086125714e-37
2.5905994043314e-36
1.3735043822123e-36
2.0186459149544e-35
1.0832831659462e-35
1.425768255889e-34
7.7381940686705e-35
9.3342544797278e-34
5.1013642676531e-34
5.8863943661429e-33
3.2142497433021e-33
3.8015429587839e-32
2.0626820403091e-32
2.5853622214317e-31
1.3998956255751e-31
1.781446715897e-30
9.72771636362e-31
1.1764074006106e-29
6.5294050176431e-30
7.1912565698172e-29
4.0691853435697e-29
4.0057881568215e-28
2.3126422193539e-28
2.0199063140264e-27
1.1902730100657e-27
9.1923101636893e-27
5.5322692978522e-27
3.7705034232377e-26
2.3196200784861e-26
1.3935951159312e-25
8.773257268607e-26
4.6413159557856e-25
2.9940594277656e-25
1.39192687932e-24
9.217496138967e-25
3.7506477164162e-24
2.5558861497958e-24
9.0441695319523e-24
6.3625567931892e-24
1.9414106231198e-23
1.4153049401437e-23
3.6937276003166e-23
2.8000071488673e-23
6.2381973242049e-23
4.9209019011576e-23
9.4870760179823e-23
7.7484216228465e-23
1.3365654929135e-22
1.1175296259449e-22
1.8059357347371e-22
1.5246206280685e-22
2.4114140714671e-22
2.031990840583e-22
3.2322820681097e-22
2.7039215923157e-22
4.3292256337851e-22
3.6080004000992e-22
5.6397771492222e-22
4.7520483795778e-22
6.7962804139253e-22
5.9538650165628e-22
7.2608717490115e-22
6.7416855737869e-22
7.2903960660012e-22
6.9086952891741e-22
7.1602005436407e-22
6.8424177433355e-22
6.6937294110112e-22
6.5536879551327e-22
5.7645399281461e-22
5.8861851431253e-22
4.4562243711219e-22
4.8248968550396e-22
3.0079936141445e-22
3.5161175355072e-22
1.7267233067928e-22
2.221440730093e-22
8.2593161214784e-23
1.1900489816604e-22
3.2902901513161e-23
5.3474861188402e-23
1.1285855994753e-23
2.0414744014313e-23
3.544627759067e-24
6.900264849193e-24
1.0826702631503e-24
2.1825671931527e-24
3.3305504016966e-25
6.7631303433113e-25
1.043938166147e-25
2.1061236274888e-25
3.3375113944166e-26
6.6576172115179e-26
1.0867449150219e-26
2.1418171913378e-26
3.5959453637589e-27
7.0099696536882e-27
1.2044866888658e-27
2.3286075671937e-27
4.0600052931853e-28
7.8156699472647e-28
1.367314796523e-28
2.6337852198462e-28
4.5690584864998e-29
8.8492097818866e-29
1.5070941138107e-29
2.9461164318486e-29
4.8931742237115e-30
9.677118115394e-30
1.5628583968882e-30
3.1295714884786e-30
4.9147075137382e-31
9.9622858680197e-31
1.5238748493813e-31
3.1242405443546e-31
4.6654187781021e-32
9.6648765540518e-32
1.4119485887779e-32
2.9529336319262e-32
4.2277483784847e-33
8.9199655781905e-33
1.253295867049e-33
2.666110616127e-33
3.6804414372602e-34
7.8901720944278e-34
1.0712058806998e-34
2.3133265818145e-34
3.0915953133518e-35
6.7228748422189e-35
8.8516564818638e-36
1.9375321268239e-35
2.5152373080894e-36
5.5400150740255e-36
7.0959552621331e-37
1.5722363931522e-36
1.9882502914459e-37
4.4302822130637e-37
5.5347470688377e-38
1.2399373591376e-37
1.5311522139197e-38
3.4479343241947e-38
4.2106635642788e-39
9.5287200250492e-39
1.1513396771131e-39
2.6178366435714e-39
3.1309678859032e-40
7.1513914909877e-40
8.4697465029119e-41
1.943026304343e-40
2.2796453255647e-41
5.2517013924567e-41
6.1058953961359e-42
1.4123508036401e-41
1.6278458683682e-42
3.77989128976e-42
4.318821196617e-43
1.0070669674273e-42
1.1441726153059e-43
2.6677019876003e-43
2.9435457719634e-44
7.1120260283344e-44
9.2194557277969e-45
1.7150122362171e-44
7.5368551572461e-45
0
0
0
0
0
0
0
0
1.5092017985917e-65
3.775668320488e-66
1.0860031877042e-52
5.2063754298248e-53
1.5154226901522e-50
7.2844296068086e-51
1.0434923392999e-48
5.0315562523596e-49
4.718780535563e-47
2.2836970273887e-47
1.5760514976238e-45
7.6599168772838e-46
4.14671997726e-44
2.0251142200169e-44
8.9549319319036e-43
4.3967650131989e-43
1.6335320528663e-41
8.0680910711726e-42
2.5660564388687e-40
1.2757181999767e-40
3.5243059891665e-39
1.7648376686933e-39
4.2789795957812e-38
2.1601328326389e-38
4.6217891337079e-37
2.354009160973e-37
4.4805786071783e-36
2.3046180702124e-36
3.9076809482091e-35
2.031582604881e-35
3.0819102880134e-34
1.6205939440489e-34
2.20970289215e-33
1.1773082957679e-33
1.4287102369058e-32
7.7031008337056e-33
8.6390780149577e-32
4.6679535868574e-32
5.3777091472451e-31
2.8701733261341e-31
3.7768850514327e-30
1.9831527086365e-30
2.9938451363742e-29
1.5653574141602e-29
2.4697837450907e-28
1.3041339549996e-28
1.9283567836017e-27
1.0373907373187e-27
1.3492147905328e-26
7.4228440024693e-27
8.2994256216251e-26
4.6746004432479e-26
4.4665604948417e-25
2.5774463762861e-25
2.1017535856108e-24
1.2440329388194e-24
8.6533999060035e-24
5.2625695969684e-24
3.1208959668018e-23
1.9541062475251e-23
9.8676750087061e-23
6.3768090026022e-23
2.7351514081016e-22
1.829738518709e-22
6.6344143848786e-22
4.6115843443194e-22
1.4023356400977e-21
1.0184047703613e-21
2.5604327110787e-21
1.954607970869e-21
3.9959192406461e-21
3.2500227610841e-21
5.1754958930922e-21
4.5448618802545e-21
5.7668560211685e-21
5.3467945717676e-21
6.0586263909461e-21
5.7108407984524e-21
6.3334263414546e-21
5.9514613541011e-21
6.7806173483226e-21
6.2647005753134e-21
7.5660637411118e-21
6.8021067326291e-21
8.7787492575357e-21
7.7007806778743e-21
1.0246058703182e-20
8.9439734442864e-21
1.1225860230922e-20
1.0126476324688e-20
1.1359029036154e-20
1.0582769747438e-20
1.1274599271069e-20
1.0541275853238e-20
1.0713100608791e-20
1.0225797439052e-20
9.4300919475798e-21
9.3594093301773e-21
7.4819746665038e-21
7.8545226107693e-21
5.2003163133157e-21
5.8802159409298e-21
3.0859012178733e-21
3.8295440067514e-21
1.5329364151621e-21
2.1233253849835e-21
6.365904090731e-22
9.9155734950822e-22
2.2764611808872e-22
3.9427153433359e-22
7.4226227996637e-23
1.3861592852954e-22
2.3406264166612e-23
4.5416931645081e-23
7.4084240916762e-24