/*--------------------------------*- C++ -*----------------------------------*\
  =========                 |
  \\      /  F ield         | OpenFOAM: The Open Source CFD Toolbox
   \\    /   O peration     | Website:  https://openfoam.org
    \\  /    A nd           | Version:  7
     \\/     M anipulation  |
\*---------------------------------------------------------------------------*/
FoamFile
{
    version     2.0;
    format      ascii;
    class       volScalarField;
    location    "2.5";
    object      alpha.water;
}
// * * * * * * * * * * * * * * * * * * * * * * * * * * * * * * * * * * * * * //

dimensions      [0 0 0 0 0 0 0];

internalField   nonuniform List<scalar> 
6000
(
0
0
0
0
0
0
0
0
0
0
0
0
0
0
0
0
0
0
0
0
0
0
0
0
0
0
0
0
0
0
0
0
0
0
0
0
0
0
0
0
0
0
0
0
0
0
0
0
0
0
0
0
0
0
0
0
0
0
0
0
0
0
0
0
0
0
0
0
0
0
0
0
0
0
0
0
0
0
0
0
0
0
0
0
0
0
0
0
0
0
0
0
0
0
0
0
0
0
0
0
0
0
0
0
0
0
0
0
0
0
0
0
0
0
0
0
0
0
0
1.7111582535965e-204
2.4844993576581e-204
4.033358919851e-204
6.5196840588074e-206
8.852647460509e-222
4.4371335049504e-185
8.0544192682743e-185
3.1796693262185e-219
-2.234732558437e-288
4.283733085162e-220
3.4629036798531e-186
1.0080302715352e-185
0
1.6943309707449e-186
3.0039911294046e-186
4.8311635614565e-186
6.0833654487973e-186
-1.0920474250824e-256
3.6243656374822e-222
2.1995584964815e-187
2.1232240913608e-187
7.6966738466356e-224
3.3451467690811e-188
7.7621026500459e-241
3.1763129743853e-189
3.9868779804391e-206
4.8508048355236e-190
3.4267236925248e-190
3.4885182328842e-206
4.1225215657339e-191
2.9901584853293e-206
4.7000316834752e-192
2.8074639923314e-192
2.2231516863585e-206
2.9167071851856e-193
3.5722270967361e-206
5.1966414008342e-206
5.2890911244647e-195
8.2926830820398e-206
5.0798740275056e-196
2.1239063417946e-205
4.7112726772223e-197
2.8365019144764e-204
3.1993530166582e-198
4.3340255786192e-205
2.4131104328848e-199
9.8359363389306e-200
1.3646898270869e-203
7.1476945045321e-201
3.6548130216693e-201
1.2435453964476e-201
6.0538659378706e-202
1.8237651357978e-203
5.5388189681618e-203
1.1943951814085e-203
6.0704012631791e-204
2.1594008151154e-204
1.0693188679461e-204
4.3990656650131e-205
1.3861800173001e-205
6.114486278436e-206
1.860899517599e-206
7.888198992542e-207
2.3423981340203e-207
9.6626930323096e-208
3.474903848655e-208
9.8978793866266e-209
3.8776590048265e-209
1.0786207930244e-209
4.1165069986217e-210
1.1229240703963e-210
3.4189169048351e-211
1.2645793023942e-211
3.3668033944934e-212
1.221630995677e-212
3.2033407134657e-213
1.1416702407928e-213
3.5823635561896e-214
9.4117993398336e-215
2.9269626627598e-215
1.0777787188664e-215
0
0
0
0
0
0
0
0
0
0
0
0
0
0
0
0
0
0
0
4.9555980933873e-147
2.7172001242444e-143
2.3889472494627e-151
2.8734515605478e-136
3.6171314913105e-120
6.1720810983004e-120
2.1699599437175e-121
1.9959720876713e-119
1.1439579610025e-120
9.6232921101668e-122
8.0373820434784e-120
2.071534140524e-119
5.9406377181543e-118
0
2.2013136429276e-135
6.7628883663e-119
1.3052221656766e-118
2.0323434647255e-118
0
6.3076828838979e-120
4.908801053983e-119
0
2.1856477665999e-119
1.3863965587009e-123
3.5201670803652e-137
2.7677604487063e-122
0
5.7622913946471e-122
7.2252422493852e-123
3.5987755020688e-123
2.0106522942564e-123
6.0978040253794e-124
8.2222752585427e-124
1.036222984111e-124
2.143597630266e-125
1.8001583115655e-125
0
1.1622840822019e-126
0
1.9212595774552e-131
-5.0890449675686e-145
6.3529270628491e-133
4.7676308599257e-130
0
2.3490972949727e-132
0
0
2.0779373780182e-133
0
3.4348423001383e-138
0
4.9671829447429e-137
3.1488662713147e-137
5.5267726824038e-137
3.4968858640647e-141
1.0471369950756e-204
1.5266291184176e-155
3.350251616234e-140
5.2941989293918e-144
0
5.2264924101649e-143
0
2.4411432626617e-143
0
4.0478210960565e-148
3.3550246395852e-145
2.0917341107559e-145
4.0187627178823e-146
0
7.7160530191242e-151
5.4039399328211e-148
0
3.1756819999885e-149
0
4.1112338609316e-151
3.8952151124288e-151
1.4929289215287e-151
2.7999674100907e-152
0
2.9420934749854e-153
3.1324131218939e-153
0
0
0
0
0
0
0
0
0
0
0
0
0
0
0
0
0
-5.1406242130534e-85
-6.2741510290842e-84
-6.5267149776359e-83
-4.2397229607493e-82
-1.8949353435452e-81
-6.62664529409e-81
3.1202106541798e-68
4.3928433658121e-70
3.0193924138456e-71
-3.8085452631468e-72
-3.7503166124469e-74
3.7503116966098e-74
2.0493706390773e-69
0
2.972649889472e-67
5.430599788318e-66
2.2047700597275e-64
1.2994134747594e-63
8.8841693315932e-59
2.340353644236e-58
-2.0646574395487e-62
3.7865147988164e-60
1.7491354780308e-59
9.4163689020882e-59
5.9369577719728e-58
2.6912298298083e-57
9.14347229694e-57
3.6963518957734e-56
1.2192573373922e-55
4.5126485309774e-55
1.1032189252709e-54
3.1595718552376e-54
8.5672508908223e-54
2.1603930251403e-53
4.6690679340593e-53
9.0412965196543e-53
2.0939514277192e-52
4.183676629292e-52
7.0684931821493e-52
1.2694285182986e-51
1.3938814908418e-51
1.5986449128575e-51
1.52147731088e-51
1.4188405072157e-51
1.3644909334419e-51
1.1379983775005e-51
9.2666426103966e-52
6.0943651821323e-52
2.9900159953704e-52
1.01787816466e-52
1.2221137709995e-53
1.8075902992523e-54
1.2534068022441e-55
1.9618633379384e-56
1.1890557192757e-56
1.2732724699424e-57
5.3997459329362e-58
4.2888410749683e-59
6.7341396721523e-60
3.6064454291998e-60
3.2158157040375e-61
3.8054917441146e-62
9.4306111963199e-63
1.9166777381784e-63
3.568186012455e-64
2.0606262206636e-64
7.4400528463392e-65
4.7212544655404e-66
2.263807581872e-66
1.8236147335377e-67
2.8521445832731e-68
1.6108860429009e-68
5.9052473024745e-69
4.9386664348224e-70
6.551404400758e-71
3.2166619150491e-71
1.0748787866331e-71
2.3910053776144e-72
7.2600916402054e-73
6.4933910281153e-74
2.2432208941697e-74
5.2205710619638e-75
2.8591637479626e-75
0
0
0
0
0
0
0
0
0
6.3393500078356e-63
5.3231548741056e-61
1.1919814344461e-59
2.214497993359e-58
3.3113257501594e-57
3.9833480520913e-56
1.0686268022912e-54
8.1130933987831e-54
6.5347539243774e-53
4.6887975041119e-52
2.220192886611e-51
1.8837444262727e-51
2.3124582095692e-68
8.7149981952036e-50
-3.7644564934811e-57
-6.2356326044697e-61
-3.9418001438462e-65
-1.9743910992511e-68
2.2323972485982e-101
0
1.1011705759853e-69
3.3463342378618e-50
6.0805455928865e-67
4.391700082414e-66
1.2316827557029e-49
1.4728743414351e-63
1.5727957839683e-42
2.7209480484296e-42
-6.5131711207844e-49
1.7408227618672e-44
1.890207418774e-59
5.5587179779819e-46
5.9326581325143e-46
4.563923620932e-50
7.6603148072114e-57
3.5296821814302e-49
1.3424319443772e-55
2.3469039605965e-49
1.2028362429116e-54
9.1263925608117e-49
8.7061624603578e-46
2.2095280172903e-53
3.9734372880766e-53
8.0993485312594e-53
3.5339189285735e-45
2.8199989946505e-49
7.6060324012588e-52
1.1539195891774e-46
1.4863227618118e-51
2.2341788000187e-47
1.6254002347034e-51
1.5189498667424e-51
1.4415260563691e-48
1.217039102797e-51
2.5958265620334e-49
5.2366078964594e-52
3.2731233899369e-52
9.3644210439897e-51
2.2291648382972e-53
1.5447824369723e-51
7.6325153839256e-55
1.4247043552768e-55
6.0706595774528e-52
4.6176067535498e-56
5.4641477954059e-53
2.6038962093264e-58
4.8667468551007e-59
3.866969393319e-54
2.7422297945539e-58
3.5915352409795e-61
9.1729576582216e-60
1.3788121923096e-62
2.1042591775625e-59
1.2391155947616e-57
4.3975307963194e-58
2.658970154486e-65
4.3834350781914e-58
1.0852802576005e-61
2.0576588678626e-67
4.8989261007893e-61
3.52283166566e-61
2.1858788125252e-69
2.922981777792e-63
2.7712347035557e-62
7.9707348695946e-63
2.5933647349806e-64
4.6651734583254e-63
6.5619934821179e-66
6.6449318043663e-64
4.1318066365886e-65
7.7718231289277e-65
0
0
0
0
0
0
0
1.6101879542829e-53
1.8057232440739e-51
9.9351063946895e-50
3.5747951042622e-48
9.4850957029514e-47
1.9838482957225e-45
3.4008022978486e-44
4.8862445960636e-43
5.9750852386068e-42
6.3282999260302e-41
5.953828445402e-40
5.1367622906637e-39
4.1859010895268e-38
3.2767097529603e-37
2.4666136400096e-36
1.7689250988549e-35
1.194083529879e-34
7.5128412749174e-34
4.3783272719627e-33
2.3561076510912e-32
1.1696271043448e-31
5.3580506653024e-31
2.2673247251306e-30
8.8745783419149e-30
3.2176516271536e-29
1.0822444560261e-28
3.3817133842758e-28
9.830993553343e-28
2.6627866682131e-27
6.7298265438141e-27
1.5896030858808e-26
3.5150328275982e-26
7.2896857190057e-26
1.4204398997345e-25
2.6050229794587e-25
4.5022224791046e-25
7.3351759507501e-25
1.1250165714666e-24
1.6164732297963e-24
2.1465180562141e-24
2.5566849302063e-24
2.6896636681734e-24
2.6763156210755e-24
2.6007031128583e-24
2.4117381104888e-24
2.0640183021675e-24
1.5897104915419e-24
1.0700139473129e-24
6.0995506370101e-25
2.8555421011491e-25
1.0805282347751e-25
3.3781686708743e-26
9.375311172956e-27
2.5289872277315e-27
7.011860001381e-28
2.0152852820489e-28
5.9352375456171e-29
1.7735637364425e-29
5.3552956139726e-30
1.6313696916581e-30
5.0028950301901e-31
1.5389888188674e-31
4.7282319241447e-32
1.4449843044065e-32
4.3801794806441e-33
1.3151193526083e-33
3.9098329259857e-34
1.1513806588834e-34
3.3602607187707e-35
9.7234598997307e-36
2.7907340758617e-36
7.9468887523867e-37
2.245870538763e-37
6.3010624695144e-38
1.7555745114693e-38
4.8588449446495e-39
1.3362268934866e-39
3.6523968820462e-40
9.9251248927293e-41
2.6819902706594e-41
7.2083927409821e-42
1.9273954514152e-42
5.127906548003e-43
1.3577722216035e-43
3.5785511826128e-44
9.3897136635639e-45
2.4531922700703e-45
6.3825229762957e-46
1.6543775618706e-46
4.2610049131274e-47
1.1168413666345e-47
2.4148126336012e-48
1.2313401454219e-48
0
0
0
0
0
0
1.4503180475043e-53
2.4165508369923e-51
1.7959303414487e-49
8.3013897056808e-48
2.7333653752793e-46
6.9163864237124e-45
1.4115550593902e-43
2.3949928332932e-42
3.444951309802e-41
4.2681318718786e-40
4.6134396659657e-39
4.3947540831728e-38
3.7443197288302e-37
2.9298016079475e-36
2.1699194876743e-35
1.5486442255127e-34
1.0658007538018e-33
7.0151056100409e-33
4.3733222135617e-32
2.5602939108814e-31
1.3980922010708e-30
7.0872074472744e-30
3.325229413441e-29
1.4418226555116e-28
5.7746114562068e-28
2.1366013054063e-27
7.3076652482734e-27
2.312597697678e-26
6.7801201201526e-26
1.8445704497692e-25
4.6661799405412e-25
1.1003230060318e-24
2.425592586271e-24
5.0137252506809e-24
9.7443447637904e-24
1.7845607474308e-23
3.0833958382383e-23
5.0267636268626e-23
7.7217384614022e-23
1.1127785952853e-22
1.4859508808558e-22
1.7881250367979e-22
1.9013634480777e-22
1.896160352963e-22
1.8508639254792e-22
1.7303085015114e-22
1.499697525726e-22
1.1751281407711e-22
8.0957798737723e-23
4.7616604776303e-23
2.3229680150928e-23
9.2470763164906e-24
3.0524937491629e-24
8.8833752018831e-25
2.4785921153729e-25
7.0346600541615e-26
2.0640531022337e-26
6.2190536203101e-27
1.90767682866e-27
5.9298969807922e-28
1.8627972563191e-28
5.8935544467894e-29
1.868936529226e-29
5.9084928127277e-30
1.8534665928598e-30
5.7514500079644e-31
1.763176817818e-31
5.3404820120534e-32
1.5994607467019e-32
4.7410124186175e-33
1.3918673486109e-33
4.0494124202011e-34
1.1679890025784e-34
3.3412156226007e-35
9.4831591299284e-36
2.6714470249729e-36
7.4720747241443e-37
2.0757893025933e-37
5.7293866809293e-38
1.5715959962594e-38
4.2854624256633e-39
1.1619477856802e-39
3.1333483064541e-40
8.4053985899743e-41
2.2434887748744e-41
5.959203982327e-42
1.5755376949992e-42
4.1468695039462e-43
1.0867140977666e-43
2.8367320381667e-44
7.3567353722638e-45
1.9413106916619e-45
4.2246981956958e-46
2.1704751426659e-46
0
0
0
0
0
6.586643553421e-54
1.4824151023794e-51
1.4285474619095e-49
8.2415274228508e-48
3.3029847973428e-46
9.9792310717447e-45
2.3947247397406e-43
4.7326448511078e-42
7.8871912514288e-41
1.1275640784752e-39
1.4021631291347e-38
1.5313807615177e-37
1.4807198164034e-36
1.2799406757294e-35
9.967341838527e-35
7.1248544832027e-34
4.8519746309099e-33
3.2469095951518e-32
2.1252966413828e-31
1.3290432338769e-30
7.8220551263921e-30
4.3124313705329e-29
2.2227193434981e-28
1.068174715731e-27
4.769820574456e-27
1.9722395921206e-26
7.5284708200152e-26
2.6466748672831e-25
8.5541182309375e-25
2.5389614649429e-24
6.9184795078267e-24
1.7320383987431e-23
3.992526487846e-23
8.5093432241716e-23
1.6879063816812e-22
3.1431833022863e-22
5.5470208035204e-22
9.3499830160347e-22
1.5107156152475e-21
2.3347843678398e-21
3.4238734803945e-21
4.6922097560971e-21
5.8405800887922e-21
6.4034096255219e-21
6.4311330310131e-21
6.3202043471155e-21
5.9721893947502e-21
5.264193896564e-21
4.2099522529529e-21
2.9741322644222e-21
1.8047832361842e-21
9.1552434761694e-22
3.8194689719941e-22
1.3263506374679e-22
4.0423945557013e-23
1.1684584700474e-23
3.4035618508454e-24
1.0216174534238e-24
3.1533690507372e-25
9.939119842297e-26
3.183440978719e-26
1.032296961943e-26
3.3731931175735e-27
1.1039914528826e-27
3.5955506976327e-28
1.1589919134152e-28
3.6849818229749e-29
1.1542836159251e-29
3.5637998099228e-30
1.0858976705691e-30
3.2698687284448e-31
9.741187956211e-32
2.87323951822e-32
8.3957128055968e-33
2.4315081627097e-33
6.982641152117e-34
1.9891939657523e-34
5.6237660689289e-35
1.5784736419896e-35
4.4000853457938e-36
1.2185385675053e-36
3.3535222024141e-37
9.1741594851781e-38
2.4954301515905e-38
6.7505893481771e-39
1.8165659471746e-39
4.8636635975596e-40
1.2958726914225e-40
3.4365917489212e-41
9.0723037192058e-42
2.3852885598567e-42
6.2295250247212e-43
1.6552256466371e-43
3.625621423256e-44
1.8774061786564e-44
0
0
0
0
0
3.7414129548116e-52
6.0209380201236e-50
4.6638379465463e-48
2.3219851880251e-46
8.3932764366531e-45
2.3568812536931e-43
5.3697490703609e-42
1.0234960423999e-40
1.6653964786321e-39
2.3498013866925e-38
2.9098016413267e-37
3.1854849195538e-36
3.1095950341371e-35
2.7226147521149e-34
2.1463235870577e-33
1.5327353371918e-32
1.0116510817481e-31
6.3919891688652e-31
4.1098639383713e-30
2.7822429863284e-29
1.9190936489173e-28
1.2764095498983e-27
7.892280741813e-27
4.4595773028577e-26
2.286174090991e-25
1.0598438806198e-24
4.4369615768163e-24
1.6769328110922e-23
5.7225771380411e-23
1.7626795339658e-22
4.8929526593973e-22
1.2200604443405e-21
2.7201792907276e-21
5.3978427217775e-21
9.5215431186672e-21
1.5058559485151e-20
2.183257488172e-20
2.9967730451718e-20
4.0215780524601e-20
5.3911162737543e-20
7.2459417027137e-20
9.6024491086611e-20
1.2084763602092e-19
1.3709013994109e-19
1.3983272668243e-19
1.3825546462578e-19
1.3220676810218e-19
1.1876550138995e-19
9.7125417831993e-20
7.0453668030277e-20
4.4103598146763e-20
2.3219519427465e-20
1.0117671464193e-20
3.6832203511126e-21
1.1738762972014e-21
3.5197423391859e-22
1.0550999171918e-22
3.2480918815955e-23
1.0289992185906e-23
3.3373306462079e-24
1.102788211846e-24
3.6957936154509e-25
1.2487849895905e-25
4.223207683212e-26
1.4186845172044e-26
4.7046288717087e-27
1.5343576446838e-27
4.915660503065e-28
1.5482183787442e-28
4.80215244325e-29
1.4695904463679e-29
4.4438872332734e-30
1.3292216449021e-30
3.9357181499112e-31
1.1542382564358e-31
3.3545585689254e-32
9.6661877492894e-33
2.7628428262398e-33
7.8365698905592e-34
2.2066676627305e-34
6.1708599845331e-35
1.71433305767e-35
4.732781735696e-36
1.2987643188588e-36
3.5436326569973e-37
9.6155775180623e-38
2.5954161924317e-38
6.9700099673741e-39
1.8626896289888e-39
4.9543935656876e-40
1.3121945976244e-40
3.4516047963834e-41
9.235950425514e-42
2.0363224292432e-42
1.0631653278059e-42
0
0
0
0
1.4294690138644e-63
1.0252444313144e-50
1.4399322743848e-48
9.9819827717442e-47
4.5455920823349e-45
1.5292388517404e-43
4.0537822249946e-42
8.8219686880097e-41
1.6221478587944e-39
2.5692986366956e-38
3.5591232938872e-37
4.3604640735947e-36
4.7545249140578e-35
4.6555219159149e-34
4.103629438237e-33
3.27236211511e-32
2.375450968407e-31
1.5544073982502e-30
9.4387491210374e-30
5.8252944568407e-29
4.0292338473701e-28
3.1601487230886e-27
2.60578766655e-26
2.052026727973e-25
1.4564416461649e-24
9.1209228153083e-24
5.0113642061773e-23
2.4137624292304e-22
1.0199545350989e-21
3.7858819679558e-21
1.2357230039377e-20
3.5484983945952e-20
8.9550604175195e-20
1.9812804561926e-19
3.8113969478295e-19
6.3588766956351e-19
8.9359659566454e-19
1.0548799568922e-18
1.1281821974439e-18
1.1796946794993e-18
1.2505342785392e-18
1.3718088396394e-18
1.5676492474985e-18
1.8360547110406e-18
2.091421587495e-18
2.1853270516131e-18
2.1722189914531e-18
2.101437026302e-18
1.9254991448581e-18
1.6120247915572e-18
1.2018111290067e-18
7.7603553369708e-19
4.2347149762986e-19
1.9229463261335e-19
7.3230462898576e-20
2.4394100945781e-20
7.5997066135407e-21
2.350915508448e-21
7.4421212332004e-22
2.4248978666129e-22
8.106107153028e-23
2.7673676118509e-23
9.5973078076358e-24
3.3574098014836e-24
1.1746950301652e-24
4.0754881094493e-25
1.3923476341833e-25
4.6645294871435e-26
1.5304258009815e-26
4.9225956998999e-27
1.5555958641409e-27
4.8411051891097e-28
1.4865894400852e-28
4.5107903118044e-29
1.3537988097587e-29
4.0216674299591e-30
1.183220756856e-30
3.4495925450665e-31
9.9708909297608e-32
2.8587222422668e-32
8.1334109859303e-33
2.297257280394e-33
6.4437674806863e-34
1.7955871260355e-34
4.9721094220105e-35
1.3685584863918e-35
3.7452982070862e-36
1.019327123322e-36
2.7595680107737e-37
7.4329413061299e-38
1.9922309708347e-38
5.3161632560657e-39
1.4086185668289e-39
3.7964701979601e-40
8.42554116411e-41
4.4370937100899e-41
0
0
0
0
2.2902232694572e-64
1.8076707582298e-49
2.366652064653e-47
1.5404615917803e-45
6.6353493899358e-44
2.1258637272973e-42
5.3997421114687e-41
1.1323110039458e-39
2.016503988176e-38
3.1098396296477e-37
4.2179154132134e-36
5.0883566583026e-35
5.4957498338365e-34
5.363753887268e-33
4.7334152384734e-32
3.794898953276e-31
2.7943167905918e-30
1.8508866764034e-29
1.1087703749406e-28
6.4584704652211e-28
4.2760549762349e-27
3.5412967406172e-26
3.2828433624183e-25
2.976245435071e-24
2.4294724113252e-23
1.7016998768238e-22
1.0128187029782e-21
5.1701814522178e-21
2.2896392667321e-20
8.8614457391516e-20
3.008147875273e-19
8.9679197370545e-19
2.3458867429787e-18
5.3707601354325e-18
1.0697798586371e-17
1.8293188165783e-17
2.5969959911053e-17
2.9756697739299e-17
2.9897698045978e-17
2.9064191458397e-17
2.6741602541275e-17
2.3804094505558e-17
2.3520562474748e-17
2.4191404981232e-17
2.5571368201404e-17
2.6548742749582e-17
2.6499023767564e-17
2.5864433973137e-17
2.4028904105415e-17
2.0525066647311e-17
1.5677284572877e-17
1.0418209400428e-17
5.8822524208196e-18
2.7804763797936e-18
1.1074133771095e-18
3.8592237384147e-19
1.2517652804389e-19
4.0061726710406e-20
1.3072898847674e-20
4.3902360819582e-21
1.5153481315078e-21
5.3528626220079e-22
1.9235607689156e-22
6.9752925951086e-23
2.5280960719256e-23
9.0714546186169e-24
3.1980401812456e-24
1.102486998373e-24
3.7109509418922e-25
1.2208620962122e-25
3.9354786362638e-26
1.2465780450127e-26
3.8897338967777e-27
1.1978755828678e-27
3.6454818273299e-28
1.0973340928193e-28
3.2693566855734e-29
9.6468263138137e-30
2.8206325980739e-30
8.1766472530688e-31
2.3511507839946e-31
6.7089262022971e-32
1.9004882799634e-32
5.3465422370567e-33
1.4942338386105e-33
4.1498490488193e-34
1.1456037741183e-34
3.1443886754432e-35
8.5830286524949e-36
2.3304791797538e-36
6.2953927675137e-37
1.6927756560965e-37
4.5188758047706e-38
1.2269050568139e-38
2.7408935787484e-39
1.4565001298248e-39
0
0
0
0
0
2.3101608378828e-48
2.9052164949665e-46
1.8203249624292e-44
7.5668022488903e-43
2.3455199381075e-41
5.7781462961433e-40
1.1778696858464e-38
2.0435257602977e-37
3.0779352125402e-36
4.0887756320359e-35
4.8472318440438e-34
5.1668933392884e-33
4.9995000298567e-32
4.39607375784e-31
3.5240759081826e-30
2.6076584585107e-29
1.7553510099182e-28
1.0636863137894e-27
5.9441511433791e-27
3.5715291538341e-26
2.830888078037e-25
2.7656899411963e-24
2.7073783911101e-23
2.3525579631328e-22
1.7849212891551e-21
1.1656226345596e-20
6.4784651793203e-20
3.0712883960726e-19
1.2615722953867e-18
4.5492232668367e-18
1.445685136191e-17
4.0381433695011e-17
9.8579731085941e-17
2.086583524603e-16
3.7730944903009e-16
5.6185722573877e-16
6.5801587897559e-16
6.5957669868078e-16
6.3424885804929e-16
5.6483994358871e-16
4.5262557895086e-16
3.4208877899647e-16
2.8150168707476e-16
2.6919363315276e-16
2.6756323598599e-16
2.6449317209038e-16
2.5629889946333e-16
2.3809985563444e-16
2.0593653546733e-16
1.6086510193548e-16
1.1024616125229e-16
6.4638272943473e-17
3.1909928153453e-17
1.3315756084428e-17
4.8562841369146e-18
1.6399236705195e-18
5.4331807412287e-19
1.8300718575425e-19
6.3452639492211e-20
2.2652172832979e-20
8.2915007752373e-21
3.0911738210555e-21
1.1632646626215e-21
4.3728805631245e-22
1.6253713531122e-22
5.9241227239968e-23
2.1061248027572e-23
7.2890121486157e-24
2.4577173991682e-24
8.0948933302178e-25
2.6130037705001e-25
8.2921244636472e-26
2.5932757383682e-26
8.0063220893858e-27
2.4429809378054e-27
7.3733729722954e-28
2.2027209450801e-28
6.5171843137993e-29
1.9107878322417e-29
5.5545050043638e-30
1.6016504669297e-30
4.5831948217175e-31
1.3020182118703e-31
3.6733975388988e-32
1.0295832754305e-32
2.867654402229e-33
7.9393154019772e-34
2.1854464589818e-34
5.9827699228906e-35
1.6290996124197e-35
4.4147732182467e-36
1.187511431457e-36
3.2484709564945e-37
7.30518813082e-38
3.9186684400996e-38
0
0
0
0
0
2.2862813342802e-47
2.8063185720001e-45
1.7168022851155e-43
6.9724143284058e-42
2.1132442572476e-40
5.094370505225e-39
1.0170049868346e-37
1.7290938096722e-36
2.5544102713525e-35
3.3315979384803e-34
3.8831816247859e-33
4.0796113975841e-32
3.9005494654744e-31
3.4036305650568e-30
2.7176800021385e-29
2.0059796694357e-28
1.3615054190267e-27
8.4154656725499e-27
4.6833285880064e-26
2.554252691345e-25
1.7454624315611e-24
1.6482823977404e-23
1.6724384468529e-22
1.5293627631854e-21
1.2180833389006e-20
8.4840480454018e-20
5.1564630106747e-19
2.7641715391779e-18
1.2751739400244e-17
5.0002835463652e-17
1.6954421657431e-16
5.0375524471963e-16
1.3130117564139e-15
2.980592341884e-15
5.809662723774e-15
9.4008764040141e-15
1.1875010291985e-14
1.2160254905021e-14
1.1758786126294e-14
1.0468323666233e-14
8.1197057099914e-15
5.3939274222049e-15
3.3963305404039e-15
2.5100653495687e-15
2.2472062775674e-15
2.1459772093992e-15
2.050980391403e-15
1.9053422103739e-15
1.6709352818606e-15
1.3391158537213e-15
9.5008286121654e-16
5.8038457648926e-16
2.9970248834933e-16
1.3095149469533e-16
4.9893610023636e-17
1.7523553525109e-17
6.013588515297e-18
2.094308320676e-18
7.5108265827052e-19
2.7775634099841e-19
1.0548211499799e-19
4.0841604231193e-20
1.5967078793524e-20
6.2335721874184e-21
2.4041325438137e-21
9.0788561671855e-22
3.3370818068703e-22
1.1906922367674e-22
4.1253313115058e-23
1.3913154454303e-23
4.5842785194976e-24
1.4812010272793e-24
4.7078015246662e-25
1.4752892080773e-25
4.5651376700959e-26
1.3963355361187e-26
4.2248543413467e-27
1.2653180462899e-27
3.7533135092373e-28
1.1033253157112e-28
3.2158346646858e-29
9.2980428986385e-30
2.6679789596466e-30
7.6003429201687e-31
2.1502820171611e-31
6.0437668936238e-32
1.6880975840699e-32
4.6868644958054e-33
1.2938178716168e-33
3.5518440109064e-34
9.702048561585e-35
2.629977311988e-35
7.2496763359537e-36
1.6411476435132e-36
8.8902330159715e-37
0
0
0
0
0
1.8277946891525e-46
2.2105136504596e-44
1.3318794547888e-42
5.3265293861433e-41
1.5897381519632e-39
3.7741599958045e-38
7.4206144545536e-37
1.2425657156879e-35
1.8080313324954e-34
2.3226713087804e-33
2.6669520002182e-32
2.7627792240152e-31
2.6069347647165e-30
2.2512281605401e-29
1.7848535209938e-28
1.3088966197953e-27
8.881766836635e-27
5.5562437043385e-26
3.152290759691e-25
1.6454292378304e-24
9.375764463296e-24
7.4622200205726e-23
7.2779620579104e-22
6.9532784516225e-21
5.8131212909504e-20
4.2716141279603e-19
2.8345811246519e-18
1.6400545392698e-17
8.3858229600643e-17
3.9181993645745e-16
1.5675230006527e-15
5.3276555672123e-15
1.5602865064358e-14
3.9117586218579e-14
8.1949667939574e-14
1.3719091298439e-13
1.7194859069873e-13
1.7384416681999e-13
1.6572130430176e-13
1.4288582519428e-13
1.0477419279345e-13
6.3734703284487e-14
3.4312404298682e-14
2.044288695233e-14
1.5855457281033e-14
1.4357228658976e-14
1.3488971782242e-14
1.253229557115e-14
1.1151853397783e-14
9.1868775760723e-15
6.7641235899272e-15
4.3135590396495e-15
2.3320877734504e-15
1.0672239844152e-15
4.2499733425079e-16
1.554225265323e-16
5.5330684226492e-17
1.9952612299361e-17
7.4109231613875e-18
2.8423736589145e-18
1.1211892327461e-18
4.5134987974342e-19
1.8352936349453e-19
7.4514712043253e-20
2.9873491778745e-20
1.171601770696e-20
4.4650828503268e-21
1.6476859459693e-21
5.8840225281488e-22
2.037538234274e-22
6.867249818198e-23
2.2624706297121e-23
7.3151933986184e-24
2.3282732663195e-24
7.3097276366775e-25
2.2667163271836e-25
6.9487414654007e-26
2.1073274443184e-26
6.3263183783235e-27
1.8811613157669e-27
5.5437475457677e-28
1.6199747797208e-28
4.6961565692219e-29
1.3511001662912e-29
3.8592834116929e-30
1.0948352416435e-30
3.0856758113371e-31
8.6424456604939e-32
2.4061677702802e-32
6.6605235641753e-33
1.8341293185591e-33
5.0111457262599e-34
1.3921700971149e-34
3.1725024498049e-35
1.7361756206075e-35
0
0
0
1.7080615368632e-74
4.7948638385995e-60
1.2150929502403e-45
1.4565856454406e-43
8.6931937702732e-42
3.4418740374481e-40
1.0165786329977e-38
2.3877377750257e-37
4.6435201467573e-36
7.6882601546165e-35
1.1058292410192e-33
1.4036368562965e-32
1.591745921222e-31
1.6284597642182e-30
1.5170774315325e-29
1.2948576273149e-28
1.0169502282254e-27
7.3913348742301e-27
4.9870921208812e-26
3.1247321879447e-25
1.8024210682731e-24
9.4629624222355e-24
4.8062984741538e-23
2.971411332175e-22
2.4226405141529e-21
2.2410493962694e-20
1.9368194645704e-19
1.5151624253796e-18
1.0876997846922e-17
6.7115040118389e-17
3.8169623944777e-16
1.9201379970001e-15
9.3924802043246e-15
4.1708702316523e-14
1.501920630645e-13
4.3148052614349e-13
9.8901129356246e-13
1.718763810085e-12
2.1006931056866e-12
2.0819854514331e-12
1.9124236139066e-12
1.5301659401888e-12
9.9538106675185e-13
5.2301727702882e-13
2.3961245261663e-13
1.2250415967659e-13
8.697825711959e-14
7.6851313702415e-14
7.21822773751e-14
6.771068326645e-14
6.1356803858164e-14
5.1904244895625e-14
3.9531205928898e-14
2.6249167803049e-14
1.4869053013454e-14
7.1636303556425e-15
3.0060529451295e-15
1.1536205831418e-15
4.2819284237062e-16
1.6025991072126e-16
6.1717020923628e-17
2.4571879726254e-17
1.0077669232472e-17
4.2227475152058e-18
1.7881473229264e-18
7.5617288297131e-19
3.1574097523363e-19
1.2892447413719e-19
5.1101878060734e-20
1.9570791308561e-20
7.2293134932604e-21
2.5787236736999e-21
8.9135968924995e-22
3.0000319054769e-22
9.8795341910557e-23
3.1961230564371e-23
1.0185944322417e-23
3.2035390926739e-24
9.9536487091585e-25
3.0577025697376e-25
9.2930817958008e-26
2.7961008759851e-26
8.3337143304791e-27
2.4618486384604e-27
7.2117604010706e-28
2.0959225685797e-28
6.0456046815085e-29
1.7313891671674e-29
4.9247717760349e-30
1.3917070764425e-30
3.9084585339542e-31
1.0910786240454e-31
3.0293739242278e-32
8.3433003069716e-33
2.3363875121218e-33
5.3596845529165e-34
2.9643180510957e-34
0
0
0
4.6810312660223e-72
2.3907564576992e-58
6.8570017295424e-45
8.1811669339494e-43
4.8560831153073e-41
1.9108584059306e-39
5.6058556563542e-38
1.3072288084057e-36
2.5228148513155e-35
4.1431203703844e-34
5.9081192578542e-33
7.4304504185066e-32
8.3433474966459e-31
8.447055365509e-30
7.7805167856881e-29
6.5648021497629e-28
5.100973455062e-27
3.668850170058e-26
2.4529680167208e-25
1.5285088670123e-24
8.8571784481478e-24
4.7277869884836e-23
2.3338106064331e-22
1.1929550500868e-21
7.3704634673636e-21
5.6600626217184e-20
4.6319714073507e-19
3.6697936007327e-18
2.7784343092084e-17
1.8712731203643e-16
1.1676708924862e-15
6.3614932256436e-15
3.4539435486438e-14
1.697804116677e-13
7.5116841663993e-13
2.9528902100841e-12
8.5494556585335e-12
1.599833009565e-11
1.8949962644369e-11
1.8331656303558e-11
1.5851260057219e-11
1.1346881617276e-11
6.3314884930409e-12
2.876845611702e-12
1.2218309323273e-12
6.0124298223189e-13
4.0227691077777e-13
3.4446045257391e-13
3.2190919576582e-13
3.0302273195349e-13
2.7724297481521e-13
2.387305522511e-13
1.8702515310783e-13
1.2927954972068e-13
7.7146372661708e-14
3.9502573991085e-14
1.7656494418754e-14
7.1776705245253e-15
2.7961896675812e-15
1.0907462384745e-15
4.3671599276708e-16
1.8085356841916e-16
7.7243793860775e-17
3.3735836508351e-17
1.4897155659868e-17
6.5719199763023e-18
2.863875710889e-18
1.2207088813664e-18
5.0486559014829e-19
2.0141703681564e-19
7.7264994140472e-20
2.8496295959596e-20
1.0133835499675e-20
3.4924831867478e-21
1.1732286155419e-21
3.8615130205002e-22
1.2499696612516e-22
3.9888036795171e-23
1.2565934004723e-23
3.9115018723647e-24
1.2039173863541e-24
3.6664252098143e-25
1.1055081739845e-25
3.3023074404547e-26
9.777974093357e-27
2.8712426186695e-27
8.3651044541737e-28
2.4189401864829e-28
6.9452426553284e-29
1.9806195584177e-29
5.6117678121049e-30
1.5801094711591e-30
4.4240998804081e-31
1.2284276987795e-31
3.4679561982877e-32
8.0086343512527e-33
4.4782556421098e-33
0
0
0
0
2.3727471557991e-57
3.3338693378265e-44
3.971301659323e-42
2.3516095508529e-40
9.2247775900842e-39
2.6959849000982e-37
6.2591028303982e-36
1.2019456023595e-34
1.9629712247783e-33
2.7821991594316e-32
3.4755496249028e-31
3.8735166737854e-30
3.8895322722769e-29
3.5493745957891e-28
2.9643636001281e-27
2.2791940225616e-26
1.6214793798408e-25
1.0723109684687e-24
6.6173791270873e-24
3.8161902962525e-23
2.0495613730329e-22
1.0185912219359e-21
4.8358340199757e-21
2.3995629718096e-20
1.3863001189002e-19
9.2755151281774e-19
6.6260702184664e-18
4.7498071745819e-17
3.2783262076308e-16
2.1647374830689e-15
1.292198749704e-14
7.2429271467069e-14
3.7426411274267e-13
1.8103598955079e-12
7.5120298867516e-12
2.8169464640501e-11
9.4154123798195e-11
1.1307577484244e-10
1.0550645112129e-10
8.2805650841301e-11
5.2092668339425e-11
2.6194387731028e-11
1.2146640837126e-11
6.0559854506727e-12
3.3798692677837e-12
2.0830738784537e-12
1.4915456972449e-12
1.2567135561585e-12
1.1390163554547e-12
1.0340853964195e-12
9.0127562110511e-13
7.270133964419e-13
5.2510201236926e-13
3.314359914188e-13
1.8105649939086e-13
8.6565794612521e-14
3.7479046187088e-14
1.5418802390562e-14
6.3040931121292e-15
2.6355751338145e-15
1.138806732859e-15
5.0769006869966e-16
2.315395274499e-16
1.0680258927526e-16
4.924089730137e-17
2.2442083717301e-17
1.0011845134218e-17
4.3344850638883e-18
1.8082045158971e-18
7.233115048932e-19
2.7695644465975e-19
1.0169829618135e-19
3.5990909468725e-20
1.2357263811621e-20
4.1429114931189e-21
1.3630868398469e-21
4.4155791396458e-22
1.4109314935805e-22