/*--------------------------------*- C++ -*----------------------------------*\
  =========                 |
  \\      /  F ield         | OpenFOAM: The Open Source CFD Toolbox
   \\    /   O peration     | Website:  https://openfoam.org
    \\  /    A nd           | Version:  7
     \\/     M anipulation  |
\*---------------------------------------------------------------------------*/
FoamFile
{
    version     2.0;
    format      ascii;
    class       surfaceScalarField;
    location    "3.4";
    object      alphaPhi0.water;
}
// * * * * * * * * * * * * * * * * * * * * * * * * * * * * * * * * * * * * * //

dimensions      [0 3 -1 0 0 0 0];

internalField   nonuniform List<scalar> 
11840
(
0
0
0
0
0
0
0
0
0
0
0
0
0
0
0
0
0
0
0
0
0
0
0
0
0
0
0
0
0
0
0
0
0
0
0
0
0
0
0
0
0
0
0
0
0
0
0
0
0
0
0
0
0
0
0
0
0
0
0
0
0
0
0
0
0
0
0
0
0
0
0
0
0
0
0
0
0
0
0
0
0
0
0
0
0
0
0
0
0
0
0
0
0
0
0
0
0
0
0
0
0
0
0
0
0
0
0
0
0
0
0
0
0
0
0
0
0
0
0
0
0
0
0
0
0
0
0
0
0
0
0
0
0
0
0
0
0
0
0
0
0
0
0
0
0
0
0
0
0
0
0
0
0
0
0
0
0
0
0
0
0
0
0
0
0
0
0
0
0
0
0
0
0
0
0
0
0
0
0
0
0
0
0
0
0
0
0
0
0
0
0
0
0
0
0
0
0
0
0
0
0
0
0
0
0
0
0
0
0
0
0
0
0
0
0
0
0
0
0
0
0
0
0
0
0
0
0
0
0
0
0
0
0
0
0
0
0
1.9902639930179e-214
9.9502269631361e-215
1.2252895931683e-213
6.1264479658415e-214
4.1666243427104e-213
2.0833121713394e-213
1.0171812339734e-212
5.0863780019239e-213
1.8494204254451e-213
8.3223919141664e-213
3.8553477995974e-194
0
1.3823789205301e-193
2.557518026322e-194
2.5134162191583e-194
1.1310372986155e-193
4.5698476711996e-195
2.056431452009e-194
8.3088139478025e-196
3.7389662762088e-195
2.5600991475332e-193
0
8.9069229574855e-193
-9.6578197940688e-216
1.6194405377254e-193
7.2874824197617e-193
1.8540625732681e-193
9.2703128663407e-194
6.2627667132424e-193
0
2.0969586308791e-192
0
6.5246495753166e-192
0
1.1862999227852e-192
5.3383496525317e-192
2.1569089976662e-193
9.7060904894948e-193
6.1499936799491e-193
0
1.598088144873e-192
0
2.9056148088602e-193
1.307526663987e-192
6.9398659239927e-193
0
1.2617938043623e-193
5.6780721196304e-193
1.2639164690979e-193
6.3195823454895e-194
2.2980299438144e-194
1.0341134747165e-193
4.4893950232996e-194
0
8.0581150560202e-194
0
1.4651118283673e-194
6.5930032276529e-194
2.4894846622821e-194
0
4.526335749604e-195
2.0368510873218e-194
6.6521886399763e-195
0
9.6162014884315e-195
0
1.7484002706239e-195
7.8678012178075e-195
2.575686858602e-195
0
4.68306701564e-196
2.107380157038e-195
8.5146673011638e-197
3.8316002855236e-196
1.2532298324897e-196
0
2.2785996954358e-197
1.0253698629461e-196
3.1155430631947e-197
0
5.6646237512641e-198
2.5490806880682e-197
7.2251828141891e-198
1.7544610880837e-199
1.3136696025913e-198
5.9115132116009e-198
9.9334369397369e-199
4.9667184698684e-199
1.8060794436179e-199
8.1273574961258e-199
1.3444577340203e-199
6.7222886701015e-200
7.5262846535776e-200
3.7631423267888e-200
1.368415402316e-200
6.1578692785609e-200
8.5614221066528e-201
4.2807110533264e-201
1.008295173104e-200
0
7.482696066872e-201
3.741348033436e-201
8.5109597260718e-201
0
1.5474545702196e-201
6.9635086720159e-201
1.6475580112677e-201
0
2.9955675895177e-202
1.3480015831385e-201
2.0268252721234e-202
1.0134126360617e-202
3.6852920278414e-203
1.6583038537216e-202
3.5679817043066e-203
0
3.0500777645555e-203
0
6.2602354555997e-204
2.4079402389676e-203
4.9929419741218e-204
0
1.0087413002234e-204
4.0056102953313e-204
9.0958544912825e-205
0
5.9886456676804e-205
2.9943228338402e-205
6.3369014788948e-205
0
6.6074945790014e-205
0
3.9563816228295e-205
3.0111256647467e-205
3.8720719711712e-205
0
2.4635741870539e-205
1.231787093527e-205
2.1129738636442e-205
0
1.247598750116e-205
6.2677057685087e-206
7.198623738797e-206
3.5993118693985e-206
5.4363326484864e-206
0
3.0945605147274e-206
1.5472802573637e-206
2.1829334752084e-206
0
1.1412049243832e-206
5.706070332064e-207
7.6150936444696e-207
0
4.9876794995904e-207
0
2.5119663595276e-207
1.2559831797638e-207
1.5956747846647e-207
0
7.6531131295598e-208
0
0
0
0
0
0
0
0
0
0
0
0
0
0
0
0
0
0
0
0
0
0
0
0
0
0
0
0
0
0
0
0
0
0
0
0
0
0
2.730686313167e-159
1.3653431565835e-159
1.5008351985285e-155
7.5041759926424e-156
1.3643956350153e-155
1.3643956350764e-156
8.20053235787e-145
7.2133928611462e-145
2.8866187316382e-128
0
1.3131392878836e-127
0
1.3131392878836e-127
0
1.9369026506302e-127
5.8986685838161e-128
2.0149948949592e-128
1.8880077727977e-127
2.2198803992311e-128
3.9937868277491e-129
4.7796869015679e-128
1.5856496617911e-128
1.0428853100724e-127
3.6620022579845e-128
2.5385515142228e-127
1.5457235246048e-127
8.6144832783164e-128
9.8758116903063e-127
3.1634956065805e-128
1.980753900449e-128
2.3468458798198e-128
1.1734229398708e-128
8.7023591727853e-128
0
1.6888498214209e-126
0
5.3005912533305e-128
1.6358439088876e-126
7.8234399393608e-128
0
1.5018802317816e-125
0
1.2750440914275e-125
2.2683430687759e-126
7.8629538891195e-123
3.2262719201583e-123
1.0772731367752e-122
5.3678524685463e-123
3.0957057662512e-124
1.0463160791127e-122
3.6659252603344e-124
0
3.7038997657218e-124
0
3.5476556520541e-124
0
3.6020845573023e-124
0
3.9095134419344e-124
0
2.6611961160464e-124
1.5979109148121e-124
1.6538789050419e-124
5.874981227322e-125
2.9274314664094e-124
0
4.7611782035922e-124
0
4.1922381214771e-124
2.1704113253141e-124
3.7878232567984e-124
1.8933691008333e-124
3.8803828296818e-125
3.1748586788306e-124
6.5666856329814e-125
0
2.0435947087617e-126
6.3623261621053e-125
2.0441474765309e-126
0
8.248787063881e-128
1.9616596058921e-126
8.248787063881e-128
0
9.0324570752345e-128
0
3.0489737453494e-129
8.7275597006995e-128
3.0993204020348e-129
0
5.6351280036998e-130
2.5358076016649e-129
1.0034266101163e-130
4.6317013935835e-130
9.2817722021474e-131
0
2.8891234531545e-132
8.9928598568319e-131
2.8889990761592e-132
0
6.3891125128992e-134
2.8251079510302e-132
6.6005187753746e-134
0
6.6005187753746e-134
0
1.9731069069149e-134
0
1.972776777022e-134
0
3.5868668673127e-135
1.6140900902907e-134
1.6111764297228e-136
3.4257492243405e-135
5.1017920216569e-137
0
5.1007486234605e-137
0
1.9546253778477e-138
4.9052860856757e-137
1.852929862641e-138
0
2.6860463146611e-139
1.5843252311749e-138
1.8927906801143e-139
0
4.8944626364627e-141
1.8438460537496e-139
4.8931514056671e-141
0
3.2619019122087e-141
0
1.9213155527789e-141
0
1.2418920019254e-141
0
3.2154424948016e-143
1.2097375769773e-141
3.2143705858984e-143
0
2.0650515782936e-143
0
2.8973164774653e-144
1.775319930547e-143
1.9276245494071e-144
0
5.8436805032805e-146
1.8691877443743e-144
4.5062988614085e-146
0
2.4024323231561e-146
0
1.16263705005e-146
0
7.5270812188413e-147
0
2.2143632606388e-148
7.3056448927774e-147
1.999141682364e-148
0
0
0
0
0
0
0
0
0
0
0
0
0
0
0
0
0
0
0
0
0
0
0
0
0
0
0
0
0
0
0
0
0
0
0
0
-2.8326413714726e-97
-1.4163206857363e-97
-7.1654344291349e-96
-3.5827172145674e-96
-1.0583159994643e-94
-5.2915799973213e-95
-1.1151449084514e-93
-5.575724542257e-94
-8.8723544799224e-93
-4.4361772399612e-93
-5.6284670041979e-92
-2.8142335020989e-92
9.5331855165396e-80
6.4096563494842e-80
1.6664859966323e-79
1.3089192966315e-79
4.6842143650433e-79
3.3465153150991e-79
8.4915421173371e-80
3.8350601366654e-79
1.5458903295643e-80
6.9457466201939e-80
1.6599698346265e-81
1.3798933568605e-80
5.1203696320346e-82
1.1486807192502e-81
9.3097574866612e-83
4.1893937612235e-82
1.692683768285e-83
7.6170737183763e-83
3.0776074117772e-84
1.3849230271069e-83
3.8769329535851e-85
2.6899141164195e-84
1.7187168861562e-85
2.1582160674289e-85
4.3872079445959e-73
2.2639197697067e-73
1.8751712194092e-70
1.1066039834326e-70
3.5212356063267e-70
3.4158021485334e-70
3.5316934541803e-70
3.7381843237397e-70
1.5981100780446e-70
1.3909523065078e-70
3.0634155485094e-71
1.2917685231936e-70
5.5551532048243e-72
2.507900228027e-71
1.1500411347185e-72
4.4051120701058e-72
3.3318418393367e-71
1.5767599890749e-70
4.308134089273e-70
4.1149005734188e-70
1.0293859424942e-69
6.4662809100932e-70
1.2659877656755e-69
1.3054666960037e-69
1.1472007068943e-69
1.2170832681943e-69
1.2990138328752e-69
1.22577672011e-69
2.3599113927925e-70
1.0630226935959e-69
2.1471303225738e-71
2.1451983605352e-70
3.2152391214923e-69
7.0916791433758e-70
4.8537273422193e-68
7.0474916863061e-68
8.8231976909512e-69
3.9713788683873e-68
1.4586550986509e-69
7.3645425923003e-69
1.4586550986506e-70
1.3127895887858e-69
2.7840825077107e-66
7.5964541966079e-67
4.2948789432579e-66
7.5964541966078e-66
3.4293920270422e-65
1.1774504004742e-65
7.3654612289474e-65
5.9640462800634e-65
1.5972678524369e-64
1.2538897208275e-64
4.2275247877941e-64
3.0290861108974e-64
8.5669746372838e-64
6.8097464088716e-64
2.0741414576275e-63
1.5031839825328e-63
4.1477617816136e-63
3.3994369919014e-63
7.8834422722446e-63
6.4163005266909e-63
1.7603796709148e-62
1.3252074991503e-62
3.1110606874252e-62
2.5876444457141e-62
5.9945870787836e-62
4.6577889433663e-62
9.4558177793129e-62
8.4661919552069e-62
1.2633683250842e-61
1.1606077550171e-61
1.5866544804138e-61
1.5386992669962e-61
1.6370632021151e-61
1.6971989515009e-61
1.7346597703072e-61
1.7346594501792e-61
1.6773420146509e-61
1.808594714053e-61
1.5940372450102e-61
1.721696964218e-61
1.5624108305528e-61
1.5861455114024e-61
1.3106686364317e-61
1.4993549894904e-61
9.6056683713702e-62
1.192321129629e-61
5.6357456884616e-62
7.9786350271543e-62
2.1708594820475e-62
4.0260530836136e-62
4.3340195983852e-63
1.2675426519825e-62
8.2191783833389e-64
2.2788131470946e-63
1.7678865135583e-64
5.0391792207079e-64
3.0128123000666e-65
1.4117598791895e-64
7.4638140355496e-66
2.0440521887801e-65
1.572586875254e-66
5.5840767883549e-66
2.5878818199643e-67
1.2751289384776e-66
6.7074837672658e-68
1.7151831738363e-67
1.6078799087856e-68
4.384727834312e-68
2.9842743940827e-69
1.2628760250187e-68
4.8906590329779e-70
2.4291147442706e-69
1.2686765464926e-70
3.251353746873e-70
3.2893897094891e-71
8.1145676029239e-71
8.4380374278277e-72
2.0716255970507e-71
2.1462463648413e-72
5.2878344628976e-72
5.4459319984261e-73
1.3421113741328e-72
1.3456515986698e-73
3.4255224395086e-73
4.0232952496221e-74
7.9874972987527e-74
3.2954496504328e-74
0
0
0
0
0
0
0
0
0
0
0
0
0
0
0
0
0
0
5.0102074766709e-83
2.5181851727678e-83
4.7246279770146e-81
2.4260233016859e-81
2.0714144271397e-79
1.0634969285131e-79
6.7119106036251e-78
3.4888771561245e-78
1.4748255596063e-76
7.8330048794707e-77
2.507394765144e-75
1.3354971053598e-75
4.5433044876949e-74
2.418679910214e-74
6.7870868746526e-73
3.671794876493e-73
1.1121642638735e-71
5.9371295960558e-72
1.465048411605e-70
8.0754018185437e-71
1.404039495059e-69
7.6882715379239e-70
1.5885705862783e-68
8.7456126271677e-69
1.5921521048946e-67
8.8951400001173e-68
1.440161427959e-66
8.0693779808205e-67
9.6595100751284e-66
5.5949665576969e-66
6.2738239509049e-65
3.5952593377383e-65
5.2539200186032e-64
2.9388782173127e-64
5.3590163594101e-63
3.1031515393143e-63
1.960936683161e-62
1.6043711263236e-62
2.1228333598615e-62
2.1780553472514e-62
5.864566788122e-63
1.3223907465455e-62
6.6584216146494e-61
5.9740946667467e-61
3.4775728272658e-61
5.4762534445178e-61
1.7635556694945e-61
1.7140171577714e-61
1.8203564052825e-59
1.3143008266843e-59
9.6321525352627e-60
8.5714115175624e-60
4.2504267880408e-58
1.9117102933589e-58
7.4319666094474e-57
4.3077205277022e-57
2.1936152126775e-56
1.8352418816246e-56
1.9371207857788e-55
1.0807535525123e-55
7.737913741987e-55
5.7259546706687e-55
1.5576162078747e-54
1.1158270640277e-54
2.2102367716909e-54
2.2316541280555e-54
1.5809768946457e-54
1.6182755080636e-54
8.9818604850214e-56
1.4911582897955e-54
1.7477431143507e-55
0
4.6273990781049e-56
1.0247006194868e-55
1.3075827786928e-56
9.8453581864942e-56
1.307582778693e-56
3.0511783448701e-70
2.8071096039662e-56
0
4.3967993055401e-52
2.6727647100922e-52
1.9502909595828e-52
0
5.1893398048957e-53
1.1728824180941e-52
5.1893398048958e-53
8.7653333091501e-69
1.6506851363665e-50
8.5528470722951e-51
2.870299208435e-50
1.3684555315672e-50
6.31012932908e-51
2.239286275527e-50
1.0834216445953e-50
6.8422776578361e-51
2.0622052428493e-51
8.7720112031041e-51
4.4582308929758e-51
0
4.097193492674e-52
4.0485115437086e-51
4.0971934926771e-52
0
6.176593072477e-52
0
1.1232111280861e-52
5.0533819444099e-52
1.4828214794951e-52
0
2.6963493421018e-53
1.213186545378e-52
4.9025186077052e-54
2.2060974828926e-53
6.1780699279086e-54
0
1.1232909516405e-54
5.05477904461e-54
1.3530740225552e-54
0
2.1837312080034e-55
1.1347011135332e-54
2.183733883803e-55
0
4.7618335683079e-55
0
4.761837135259e-55
0
5.0690766240071e-55
0
8.6582372825351e-56
4.2032565795305e-55
1.5744358189035e-56
7.0838362082215e-56
1.7336528062887e-56
0
1.7336928690656e-56
0
5.733332253474e-58
1.6763804751139e-56
5.7343482974157e-58
0
4.1758581593483e-59
5.3172036558806e-58
4.1767998654981e-59
0
5.0985572892175e-59
0
6.0667697404248e-59
0
6.0667806624051e-59
0
4.3680741891205e-59
0
4.3649622752544e-59
0
9.4568152161245e-61
4.2703942248754e-59
8.871206715381e-61
0
7.9965122431719e-61
0
6.0827921676468e-62
7.3882331274282e-61
6.0827923632401e-62
0
3.7181301325554e-62
0
2.1766548639675e-62
0
1.4339194340182e-62
6.2230152778611e-63
6.0828525037635e-63
6.2230152778611e-63
4.0470983332929e-63
1.5557538194653e-63
1.8414438075732e-63
1.9446922743316e-63
1.0039562805925e-63
5.5909902887034e-64
8.5080287002007e-64
0
0
0
0
0
0
0
0
0
0
0
0
0
0
9.3119590566985e-74
4.6597980320559e-74
1.4235034048206e-71
7.1614593751175e-72
1.0706379570585e-69
5.4186999430649e-70
5.2906933150524e-68
2.6949215020053e-68
1.9356202793473e-66
9.9252684443565e-67
5.602016770759e-65
2.8921911339884e-65
1.3374067540356e-63
6.9529635791258e-64
2.7083054029289e-62
1.4180977921622e-62
4.7415804690623e-61
2.5011383986134e-61
7.2753907336756e-60
3.8671936079404e-60
9.890759762977e-59
5.2990086457522e-59
1.2036634859257e-57
6.5002265826315e-58
1.3258092957155e-56
7.2157382621695e-57
1.3382875655368e-55
7.3367461654e-56
1.254704023374e-54
6.9232420764466e-55
1.1069741044491e-53
6.1424012252305e-54
9.2898266330674e-53
5.1799578293025e-53
7.4658033065547e-52
4.1817308740025e-52
5.758623684647e-51
3.2403402270126e-51
4.2575051366613e-50
2.4077312618716e-50
3.0072275506749e-49
1.7103406896329e-49
2.021864267191e-48
1.1573038759647e-48
1.2898647080267e-47
7.4357625228754e-48
7.7905711988587e-47
4.5259938043717e-47
4.4488745645572e-46
2.6061546459816e-46
2.4006807643195e-45
1.4187278869416e-45
1.2240709546631e-44
7.3007674837435e-45
5.899422793246e-44
3.5524762780217e-44
2.6889537938297e-43
1.6353595298871e-43
1.1599033973373e-42
7.1268792591973e-43
4.7385198306945e-42
2.9424028261604e-42
1.8347141501427e-41
1.1517054463143e-41
6.7377380776436e-41
4.2769291671834e-41
2.3484477170041e-40
1.5079124009279e-40
7.7741373534729e-40
5.0507866796129e-40
2.4456420272476e-39
1.6082298886098e-39
7.3155949114296e-39
4.8707166884251e-39
2.0818659710149e-38
1.4038677769575e-38
5.6392133335098e-38
3.8527142311187e-38
1.454628928577e-37
1.0072140331045e-37
3.5747966510769e-37
2.5095146363733e-37
8.3735242937312e-37
5.961609258906e-37
1.8703023360794e-36
1.3509270614285e-36
3.9851578635907e-36
2.9213209367529e-36
8.1036393639678e-36
6.0308710816434e-36
1.573102685769e-35
1.189010646539e-35
2.9158394336389e-35
2.2392565925301e-35
5.1605673832594e-35
4.0287286367169e-35
8.7180508938963e-35
6.923049410291e-35
1.404718267929e-34
1.1356449597771e-34
2.155627418216e-34
1.7762870155841e-34
3.1425130757641e-34
2.6439555636708e-34
4.3319241687164e-34
3.7326129065995e-34
5.5862363943909e-34
4.963535302014e-34
6.5812991619646e-34
6.1152475647545e-34
6.9679012749624e-34
6.810882473815e-34
6.9952037353939e-34
6.9612022807602e-34
6.9133702541257e-34
6.9159453169629e-34
6.6016054613159e-34
6.7130420397772e-34
5.9474850136115e-34
6.2248499635212e-34
4.9623675919368e-34
5.4066281444776e-34
3.7584844624263e-34
4.3151124126002e-34
2.5303100362614e-34
3.1042217927386e-34
1.4789274967221e-34
1.9709714380173e-34
7.3352885348687e-35
1.0807518915162e-34
3.0479910561549e-35
5.0303080444393e-35
1.0737920440145e-35
1.9831409551554e-35
3.3524223076687e-36
6.7797023653852e-36
9.852765635521e-37
2.1058392856632e-36
2.8561850530156e-37
6.2470268464308e-37
8.3325843754024e-38
1.8304707602722e-37
2.451722102924e-38
5.3735532905235e-38
7.2500219543634e-39
1.5844700391472e-38
2.1488214719887e-39
4.6869439497979e-39
6.3790339631422e-40
1.389294148605e-39
1.8976782694771e-40
4.126216352436e-40
5.6609882184345e-41
1.2284736021215e-40
1.6937890041086e-41
3.6678694492295e-41
5.081010203586e-42
1.0982067948689e-41
1.5267299141413e-42
3.2955952643331e-42
4.5894109609778e-43
9.9022567435898e-43
1.3783484847022e-43
2.9754597145656e-43
4.1308301642282e-44
8.929927169502e-44
1.2341052603438e-44
2.6737596021487e-44
3.6725627192672e-45
7.9794447044264e-45
1.0880541072923e-45
2.3718668200379e-45
3.207956190727e-46
7.018691400147e-46
9.4109716070977e-47
2.0667934645917e-46
2.7448617982401e-47
6.0571314628517e-47
7.9981501532203e-48
1.7617634982279e-47
2.243032143656e-48
5.1874701217891e-48
7.9338428085694e-49
1.3180828171092e-48
7.0158018094472e-49
0
0
0
0
0
0
0
0
0
0
0
0
8.2918170481656e-74
4.1403389878992e-74
1.9072931978113e-71
9.5224451025887e-72
1.9420974337479e-69
9.7224794328229e-70
1.2265836070089e-67
6.1662440058776e-68
5.5235354079226e-66
2.7909550389667e-66
1.9148613493689e-64
9.7306751596715e-65
5.3665951418178e-63
2.7437945469059e-63
1.2571854151052e-61
6.4690190215316e-62
2.5196722504206e-60
1.3052648569608e-60
4.3937609716099e-59
2.2921032636012e-59
6.752929149307e-58
3.5486064052717e-58
9.2438469276237e-57
4.8944712475933e-57
1.1366901360158e-55
6.065822552224e-56
1.2651636598973e-54
6.805356546166e-55
1.2848094575977e-53
6.9655674797624e-54
1.202058206979e-52
6.5653386612302e-53
1.048046316516e-51
5.7620626401747e-52
8.6161709267265e-51
4.7639890568222e-51
6.7456288251937e-50
3.7480086361758e-50
5.0614697844354e-49
2.8249060682947e-49
3.6491833563936e-48
2.0459023911095e-48
2.5269456341906e-47
1.4236585933986e-47
1.6769212638309e-46
9.4993038525019e-47
1.0633160297938e-45
6.0604091575205e-46
6.4233778250028e-45
3.6861009316361e-45
3.6874067994408e-44
2.1319980211009e-44
2.0077324845557e-43
1.1703483570584e-43
1.0355306887501e-42
6.0894197374086e-43
5.0556916760854e-42
3.0007794890922e-42
2.3358299251383e-41
1.4000706964089e-41
1.0213415697759e-40
6.1848606630752e-41
4.2276091739859e-40
2.5875117259245e-40
1.6572991999867e-39
1.0256100857033e-39
6.1562357898027e-39
3.8534134635356e-39
2.1681263274341e-38
1.3731287814734e-38
7.2438032736654e-38
4.6433424593544e-38
2.2973414529395e-37
1.4909483218087e-37
6.9203947238342e-37
4.5485313992922e-37
1.981337898224e-36
1.3192499687956e-36
5.3950041303935e-36
3.6400565758549e-36
1.3980408663471e-35
9.5609080803006e-36
3.4501110435494e-35
2.3921494232413e-35
8.1135757679304e-35
5.7050423487934e-35
1.8193402644981e-34
1.2977051992237e-34
3.8918209473017e-34
2.8168983135983e-34
7.9448692577352e-34
5.8374849404031e-34
1.548126576758e-33
1.155206917158e-33
2.8795942738484e-33
2.183358805439e-33
5.1121057034871e-33
3.9409166073231e-33
8.6586144365733e-33
6.7913771572623e-33
1.3982054062936e-32
1.116775094585e-32
2.1499856875758e-32
1.7506422765803e-32
3.1413122771181e-32
2.6117454770444e-32
4.3431245699139e-32
3.6972624172005e-32
5.6281595331258e-32
4.9357946694596e-32
6.6908407645776e-32
6.1236494759596e-32
7.1548002237769e-32
6.8924410376033e-32
7.1957525295627e-32
7.0899546907415e-32
7.1355038643817e-32
7.0569146209105e-32
6.8532812011397e-32
6.8804664037847e-32
6.2300034860441e-32
6.4275946995821e-32
5.2638230538024e-32
5.6427340919134e-32
4.0532625210994e-32
4.5682250704118e-32
2.7880653661719e-32
3.3476641058243e-32
1.6755763031384e-32
2.1767683613121e-32
8.6081119246674e-33
1.2302364689132e-32
3.7285813432794e-33
5.9405967495184e-33
1.3716774613436e-33
2.4400131520454e-33
4.4480786597346e-34
8.68205951201e-34
1.3446748319162e-34
2.7888508893522e-34
3.9761162301266e-35
8.4858560859769e-35
1.1783432758595e-35
2.5348801444929e-35
3.5190853570902e-36
7.5642745362174e-36
1.0569728425654e-36
2.2658604631684e-36
3.1852443719068e-37
6.8122713531139e-37
9.6235195028959e-38
2.0540398116994e-37
2.9160186258044e-38
6.2107820424015e-38
8.8660726231805e-39
1.8839362714308e-38
2.7049744346219e-39
5.7342837107715e-39
8.2754016798237e-40
1.7509476814247e-39
2.5354578510121e-40
5.3588599417258e-40
7.7673612412389e-41
1.6417127925394e-40
2.3754108668211e-41
5.0265937267209e-41
7.2416968565834e-42
1.5358409783267e-41
2.1984043107557e-42
4.6768814886117e-42
6.6407136088259e-43
1.4180093542853e-42
1.9950635447978e-43
4.2777867085653e-43
5.9594736615389e-44
1.2834827223684e-43
1.7698763084219e-44
3.8287560430447e-44
5.2220995038562e-45
1.1358509722249e-44
1.5384913312468e-45
3.3416603606661e-45
4.3574538374506e-46
9.9510958960056e-46
1.5611712952639e-46
2.5463407526729e-46
1.380614182941e-46
0
0
0
0
0
0
0
0
0
0
3.8494933296871e-74
1.9154732722961e-74
1.179529118703e-71
5.8565012618497e-72
1.5611060896858e-69
7.7507688465207e-70
1.235519703769e-67
6.1454888061406e-68
6.7780741459213e-66
3.3820919818265e-66
2.8007406279759e-64
1.4032863293488e-64
9.1911909385272e-63
4.6275415648965e-63
2.4859599745319e-61
1.2583802400626e-61
5.6916648169503e-60
2.8979223064573e-60
1.1247336728622e-58
5.7622986649778e-59
1.9467981749065e-57
1.0039705677703e-57
2.9864638797331e-56
1.5508072737024e-56
4.0983258242591e-55
2.1436207210722e-55
5.069994096435e-54
2.6718958357725e-54
5.6919718893559e-53
3.0231417733519e-53
5.8347669529243e-52
3.1237777083776e-52
5.4943777421569e-51
2.9650223098799e-51
4.7877478737423e-50
2.6032786203703e-50
3.8994509000117e-49
2.1344672013568e-49
3.0045468901709e-48
1.6536867527047e-48
2.2141348785481e-47
1.2241833460422e-47
1.5703068334332e-46
8.7188281944495e-47
1.0725073226792e-45
5.9825094326045e-46
7.0337908857774e-45
3.9450756616454e-45
4.4129886040698e-44
2.4911423042305e-44
2.6408922712806e-43
1.5017111072777e-43
1.5046768857915e-42
8.6248091139237e-43
8.1536862700229e-42
4.7138466542135e-42
4.1994822841139e-41
2.4498716026441e-41
2.0546503559716e-40
1.2100584877593e-40
9.5446775585326e-40
5.6772691644917e-40
4.2077837468094e-39
2.5288856431095e-39
1.7596230994479e-38
1.0690082223941e-38
6.9774112606593e-38
4.2867649515587e-38
2.62269737536e-37
1.6302174536522e-37
9.3431222533154e-37
5.8781165587164e-37
3.1541226130617e-36
2.0093594114097e-36
1.0090318532432e-35
6.511722682071e-36
3.0592673882743e-35
2.0007412635083e-35
8.792679356128e-35
5.8295345789108e-35
2.3965894333333e-34
1.6113171959919e-34
6.1987341326511e-34
4.2273711538525e-34
1.522755521551e-33
1.0535172712767e-33
3.5570325383618e-33
2.4966425126671e-33
7.9127625741323e-33
5.6339099469115e-33
1.6792811356402e-32
1.2126158802411e-32
3.4064589136534e-32
2.4940090111873e-32
6.6166634449112e-32
4.9104812436269e-32
1.2322226512073e-31
9.2692240053132e-32
2.2011063982472e-31
1.6787945822797e-31
3.7689073861807e-31
2.9168389479421e-31
6.1754661016567e-31
4.8558510556189e-31
9.657541683304e-31
7.7290454167591e-31
1.4365023034327e-30
1.1727551735654e-30
2.0224981737204e-30
1.6896317847125e-30
2.6715962812296e-30
2.2969649778406e-30
3.2480991424893e-30
2.9084000385949e-30
3.5486831403486e-30
3.3499446606288e-30
3.5901869319623e-30
3.4963011462076e-30
3.575210614862e-30
3.493132885468e-30
3.4580018193551e-30
3.4239414860849e-30
3.1820353871698e-30
3.2303786064945e-30
2.728286265027e-30
2.8730130161115e-30
2.1395812825447e-30
2.3640660292899e-30
1.5051619784991e-30
1.7672511055873e-30
9.3008867331229e-31
1.1775002766931e-30
4.9441624357014e-31
6.8565653309068e-31
2.2286897794883e-31
3.4309127144143e-31
8.5505504127529e-32
1.4661250723937e-31
2.8799490378808e-32
5.4257437443017e-32
8.9649962278701e-33
1.8030330961609e-32
2.7073994871594e-33
5.6328343265013e-33
8.1572367748606e-34
1.7170204099201e-33
2.473650757134e-34
5.2115596542964e-34
7.5478340174524e-35
1.5864568904486e-34
2.3131658708849e-35
4.8489124666012e-35
7.1150281643179e-36
1.4876303616452e-35
2.1970215579303e-36
4.5812827864304e-36
6.8127426629883e-37
1.4166144601166e-36
2.1209665590413e-37
4.3986674195902e-37
6.6224525494681e-38
1.3707531116765e-37
2.0703421326585e-38
4.2818012229121e-38
6.4674528149541e-39
1.3383285294477e-38
2.0148820496579e-39
4.1776265035743e-39
6.2502488982364e-40
1.3000222353433e-39
1.9283402640735e-40
4.0272175686248e-40
5.9129826885461e-41
1.2406742977952e-40
1.8013955436721e-41
3.7987539880725e-41
5.4515499661714e-42
1.1556210225831e-41
1.6389501925394e-42
3.4921791771433e-42
4.8917701876305e-43
1.0486646380307e-42
1.4570769620888e-43
3.1204692183956e-43
4.1676642966293e-44
9.3976848580489e-44
1.5126452175534e-44
2.4213206362421e-44
1.337636854861e-44
0
0
0
0
0
0
0
0
0
0
2.9888273466698e-72
1.4687841185243e-72
6.6012043394231e-70
3.2452400736205e-70
7.0367624099011e-68
3.463417713842e-68
4.8186216203996e-66
2.3766807414361e-66
2.3921611948852e-64
1.1833776540868e-64
9.2137585069879e-63
4.5748351352014e-63
2.8764512027734e-61
1.4344031116732e-61
7.5088548544209e-60
3.76261458709e-60
1.6767534585762e-58
8.4466867368118e-59
3.2574989657368e-57
1.650382866689e-57
5.5791203019602e-56
2.8439418067579e-56
8.5130954836721e-55
4.3677787134076e-55
1.1670310918234e-53
6.0288241620604e-54
1.4472935948697e-52
7.5306188268069e-53
1.6338486931676e-51
8.5653242101078e-52
1.6877472435961e-50
8.9171364788892e-51
1.6024088451247e-49
8.5345229093388e-50
1.4049597869575e-48
7.5434502932192e-49
1.1447790982427e-47
6.1937130986935e-48
8.7484019763918e-47
4.7647060598956e-47
6.347976626417e-46
3.4750705184464e-46
4.4316172327712e-45
2.4350219114505e-45
3.0054463064078e-44
1.6566563228435e-44
1.9866175329648e-43
1.0992735845502e-43
1.2771687066753e-42
7.1047533110747e-43
7.9480237343471e-42
4.4522930678266e-42
4.7632686128534e-41
2.6906150806027e-41
2.7359564403071e-40
1.5599714158494e-40
1.4998211272702e-39
8.6382545674919e-40
7.8187788360816e-39
4.5514634337905e-39
3.8649688593339e-38
2.2750619634105e-38
1.807555532817e-37
1.0763809138157e-37
7.9849126368225e-37
4.8123449992201e-37
3.3280624573316e-36
2.0308379875891e-36
1.3077526746848e-35
8.0834508810873e-36
4.8422717714628e-35
3.0332469509359e-35
1.6888800802063e-34
1.0726524607881e-34
5.5466912380315e-34
3.5737817594995e-34
1.7147780053117e-33
1.1214744845269e-33
4.9882524831716e-33
3.3135579926202e-33
1.3647498975001e-32
9.2143244905322e-33
3.5099797639595e-32
2.4104262728428e-32
8.4823464571835e-32
5.9291851342876e-32
1.9258194579334e-31
1.3710592840684e-31
4.1094473336712e-31
2.9809847287724e-31
8.2535382834827e-31
6.100206356696e-31
1.5647987026627e-30
1.1776221368118e-30
2.8139189470411e-30
2.1531368550653e-30
4.8307974005962e-30
3.7500376680368e-30
7.975646304984e-30
6.2649601378365e-30
1.2747204883703e-29
1.0108989259763e-29
1.9802150756044e-29
1.5834872222174e-29
2.9902709895619e-29
2.4122328421727e-29
4.3715881118618e-29
3.5660109828312e-29
6.1393768123393e-29
5.0858373598459e-29
8.185308740236e-29
6.9332688581433e-29
1.0154237395954e-28
8.9024601911928e-29
1.1382999207618e-28
1.0500021405019e-28
1.1637278995392e-28
1.117911555977e-28
1.1643499335399e-28
1.1233628990681e-28
1.1336102733938e-28
1.1066538049446e-28
1.0570824848227e-28
1.0550600237732e-28
9.2072236238842e-29
9.5152237988189e-29
7.3605328303288e-29
7.9660346353412e-29
5.29849473828e-29
6.0793764723536e-29
3.3661878938747e-29
4.1519181299042e-29
1.8499112842537e-29
2.4900358236878e-29
8.6656918314087e-30
1.2898152668977e-29
3.4628846645508e-30
5.7271699485319e-30
1.2111705303462e-30
2.2026717494743e-30
3.8857442369534e-31
7.5738186150866e-31
1.1999624950238e-31
2.4314848926578e-31
3.6791297103653e-32
7.5706217347376e-32
1.133502932853e-32
2.3389984353117e-32
3.5148939345273e-33
7.2394167835553e-33
1.0958504742636e-33
2.2503336504853e-33
3.4331648843365e-34
7.0276767515838e-34
1.0809711053869e-34
2.2053964051972e-34
3.4211268292615e-35
6.9563908725564e-35
1.0877261753675e-35
2.2052029642539e-35
3.469189832738e-36
7.0193260150502e-36
1.1075002087199e-36
2.2396967934496e-36
3.5301322475377e-37
7.1475714539934e-37
1.1209122885105e-37
2.2760310006613e-37
3.5392358091277e-38
7.2167603909259e-38
1.1099430892257e-38
2.2749408383972e-38
3.4552770171498e-39
7.1224463862597e-39
1.0674885176315e-39
2.2135786468437e-39
3.2729392998676e-40
6.8279254552082e-40
9.9607898045226e-41
2.090199743957e-40
3.0074004545843e-41
6.3533799407061e-41
9.0568484384637e-42
1.9121837899552e-41
2.6161034870029e-42
5.8241589993496e-42
9.6207689741646e-43
1.5107094083653e-42
8.5064466851896e-43
0
0
0
0
0
0
0
0
9.2954594950614e-83
4.593222827081e-83
1.1263189417566e-70
5.4617126665024e-71
2.1776584488139e-68
1.058047228826e-68
2.0806834633339e-66
1.0132165421211e-66
1.3058725085946e-64
6.3763691850353e-65
6.0513623939127e-63
2.9642180793311e-63
2.2079858282453e-61
1.0855361658526e-61
6.6079595873288e-60
3.2621262284206e-60
1.6694611937019e-58
8.2789301185825e-59
3.6359371855721e-57
1.8119703111256e-57
6.9337370521855e-56
3.4738026519022e-56
1.1722603181073e-54
5.9065052869e-55
1.7741070357225e-53
8.9933439655471e-54
2.42207352253e-52
1.2357421302057e-52
3.00230693187e-51
1.542259214197e-51
3.3976151033496e-50
1.7578799758721e-50
3.5268352442888e-49
1.8384601141864e-49
3.3720470352559e-48
1.7715638834168e-48
2.9803350914032e-47
1.5785449646559e-47
2.4427417564454e-46
1.3045284429087e-46
1.8654815310664e-45
1.0040219492014e-45
1.3405484336371e-44
7.2600885620989e-45
9.2213110419518e-44
5.0126736629786e-44
6.2058390840186e-43
3.3779175419899e-43
4.1631509174703e-42
2.2671994016805e-42
2.8056351316534e-41
1.5306945653527e-41
1.8902427087752e-40
1.0357779521756e-40
1.2565343729156e-39
6.932909950871e-40
8.1150406467103e-39
4.5172293996366e-39
5.0227288450737e-38
2.8245962932531e-38
2.9488033595053e-37
1.6769444565794e-37
1.6305987599329e-36
9.3841723062234e-37
8.454545812034e-36
4.926999896764e-36
4.0992026343565e-35
2.42035524863e-35
1.855733147891e-34
1.1107572559939e-34
7.8381741541085e-34
4.7586131901886e-34
3.0879883119224e-33
1.9026121783927e-33
1.134678358171e-32
7.0993954548761e-33
3.8886791314602e-32
2.472373801428e-32
1.2429110986562e-31
8.0358745805007e-32
3.7045245960318e-31
2.4375518897972e-31
1.0293986205927e-30
6.8994488579813e-31
2.6657978013218e-30
1.8217686395786e-30
6.429444699525e-30
4.4850250797557e-30
1.4425430350607e-29
1.0285588240043e-29
3.0055487004641e-29
2.1939898141468e-29
5.801598013567e-29
4.3437973866327e-29