/*--------------------------------*- C++ -*----------------------------------*\
  =========                 |
  \\      /  F ield         | OpenFOAM: The Open Source CFD Toolbox
   \\    /   O peration     | Website:  https://openfoam.org
    \\  /    A nd           | Version:  7
     \\/     M anipulation  |
\*---------------------------------------------------------------------------*/
FoamFile
{
    version     2.0;
    format      ascii;
    class       volScalarField;
    location    "3.4";
    object      alpha.water;
}
// * * * * * * * * * * * * * * * * * * * * * * * * * * * * * * * * * * * * * //

dimensions      [0 0 0 0 0 0 0];

internalField   nonuniform List<scalar> 
6000
(
0
0
0
0
0
0
0
0
0
0
0
0
0
0
0
0
0
0
0
0
0
0
0
0
0
0
0
0
0
0
0
0
0
0
0
0
0
0
0
0
0
0
0
0
0
0
0
0
0
0
0
0
0
0
0
0
0
0
0
0
0
0
0
0
0
0
0
0
0
0
0
0
0
0
0
0
0
0
0
0
0
0
0
0
0
0
0
0
0
0
0
0
0
0
0
0
0
0
0
0
0
0
0
0
0
0
0
0
0
0
0
0
0
0
0
0
0
0
0
3.9805826361334e-212
2.4505791863366e-211
8.3332486854286e-211
2.0343388763439e-210
1.6820381385501e-221
8.6745325490941e-192
2.9824766698767e-191
2.8574079075744e-203
1.538077853145e-203
1.5113635367596e-203
5.7602230819498e-191
2.0040576654342e-190
1.3154205536721e-203
3.7081251465363e-191
1.4091225104795e-190
4.718156919478e-190
1.4680461544462e-189
8.4302534896444e-203
1.5319578639837e-203
1.3837485779885e-190
3.5956983259643e-190
1.225964978985e-204
1.5614698328984e-190
0
2.5278329381958e-191
3.114748422218e-208
1.0101138802424e-191
1.8130758876046e-191
3.114748422218e-208
5.6013404901348e-192
1.557374211109e-208
1.4967424439947e-192
2.1636453348971e-192
3.8934355277725e-209
5.7952954318544e-193
1.9467177638863e-209
2.1900574843721e-209
2.8197671231018e-194
4.2584451085012e-209
7.009971892188e-195
2.6828204183558e-208
1.6168938277521e-195
2.9869570471656e-207
1.9866873879474e-196
7.7299571278017e-208
2.6889154680406e-197
1.5052569307155e-197
1.5930452127359e-206
1.7122844213306e-198
2.268664139484e-198
1.4965392133744e-198
1.9149659383661e-198
1.8446986040106e-204
3.7070055253522e-199
1.9160722133646e-205
4.0536505442468e-200
3.8779403484561e-205
8.0279588346897e-201
6.8626749702498e-201
2.0458285802613e-202
1.1234119441774e-201
2.6686277783687e-203
2.0465672605386e-202
1.1977291335361e-202
1.4258028327513e-202
1.4866862802753e-202
7.3962958189931e-203
8.7121619351353e-203
4.9271483741078e-203
4.7541911931994e-203
2.4937118993355e-203
1.4397247477594e-203
1.2231748459094e-203
6.1891210294549e-204
4.9116003192188e-204
2.2824075632589e-204
1.7133960700057e-204
1.1222278874078e-204
5.0239327190552e-205
3.5902682654957e-205
3.0612447755918e-205
0
0
0
0
0
0
0
0
0
0
0
0
0
0
0
0
0
0
0
5.4613726263339e-157
3.001670397057e-153
3.0551284573522e-164
3.1966698126851e-142
2.8651096504876e-126
6.8578715639444e-125
4.8972621378385e-231
4.0854402254696e-125
7.05452583767e-127
-1.2309914357887e-131
6.288424988245e-126
1.3892478390232e-125
6.6145900330548e-125
-3.7527942615909e-143
2.3654834118804e-126
4.2946856622831e-126
1.1060130871944e-125
3.5318885333922e-124
0
5.2796443999305e-126
6.905349032314e-123
-2.3703932679893e-128
1.251481756927e-120
2.219737286718e-120
0
6.931437434166e-122
1.9345171301402e-122
8.2722240311083e-122
7.591032683968e-122
8.2626316741145e-122
6.6423448937808e-122
1.8710026759556e-122
5.8951223955259e-122
1.0111630996459e-121
8.911165437968e-122
7.4986912611947e-122
3.5279332054175e-123
1.1772593289326e-122
0
2.5746242917232e-127
-6.6599917309758e-255
-2.9137463823019e-255
1.9125061788537e-125
0
9.2914688344491e-128
1.3064201766303e-198
0
1.9276813715339e-128
0
3.1863733706378e-133
7.9516327618259e-147
1.968295077704e-132
0
3.1204788007068e-131
2.0533647778604e-135
0
0
5.0020119168306e-134
5.214296804336e-138
-1.2506145738077e-151
5.0936067672018e-137
0
3.611133766612e-137
0
5.9691290209634e-142
6.9778527832885e-139
5.5554137549218e-139
2.5656287366267e-139
-5.6902623986818e-158
4.0823297729434e-144
4.2001924958275e-141
0
3.5966722399816e-142
-7.4542437422734e-159
6.5037807993846e-144
6.6454200951225e-144
3.7378902975319e-144
1.3888917254008e-144
0
7.2222872125467e-147
6.2479676056845e-146
0
0
0
0
0
0
0
0
0
0
0
0
0
0
0
0
0
-5.6652827429452e-95
-1.433086885827e-93
-2.1166319989285e-92
-2.2302898169028e-91
-1.7744708959845e-90
-1.1256934008396e-89
1.2524983156215e-77
2.253645848934e-77
9.0381311021398e-77
-4.5207391772829e-85
-4.7648455925093e-83
-5.3903660937886e-87
0
-8.9096977921425e-88
3.7453410837492e-97
-1.5558707799742e-93
8.2239371537e-94
-7.0735518289517e-100
5.4726808748757e-71
2.186821394173e-68
5.8946506337876e-68
6.9529096357822e-68
2.9991474445952e-68
-8.2360543304905e-85
0
1.286889397367e-86
3.0027910350002e-69
4.7621798834956e-68
1.5424328524203e-67
2.3835922256752e-67
2.1401284697332e-67
2.2762482422552e-67
0
0
3.0766939197761e-67
7.466091195631e-66
-1.191171191266e-71
-2.6973201768813e-83
-6.9230457836549e-85
4.2469605613813e-64
5.4204439696737e-64
4.2989002488008e-63
9.8912923838439e-63
2.0928662216759e-62
5.743871415284e-62
1.1474482259775e-61
2.8442199026773e-61
5.7854476216963e-61
1.0869150784395e-60
2.5104631093991e-60
4.4232402320133e-60
8.8373766249663e-60
1.4790715312501e-59
2.0291688400905e-59
2.9565513965206e-59
2.9811581332608e-59
3.3058147778087e-59
3.1761054964167e-59
3.0111944834555e-59
3.0132273196443e-59
2.6547981013456e-59
2.1079623016691e-59
1.3985172273392e-59
6.8020647800388e-60
1.7087105404921e-60
2.862315803973e-61
5.1645195809334e-62
3.0455420851823e-63
1.6496323242538e-63
2.5057711414949e-64
2.3154846247287e-65
1.2158034152393e-65
4.4011418505403e-66
2.8379896855381e-67
3.9873256004992e-68
2.274126702177e-68
7.9057883334104e-69
2.2970960938319e-69
6.1258037378328e-70
1.5722763954247e-70
4.0573762955287e-71
8.6551319524844e-72
4.3079314102632e-72
0
0
0
0
0
0
0
0
0
4.7998793177213e-81
4.5217053057758e-79
1.9948564660599e-77
6.5605212335345e-76
1.4569071076119e-74
2.493914009054e-73
4.5275743943245e-72
6.7360399259381e-71
1.1166152091174e-69
1.5004550371441e-68
1.4387133486398e-67
1.6333909215256e-66
1.6435168977167e-65
1.524744504414e-64
1.0393303921212e-63
6.6980192025393e-63
5.4763910552415e-62
5.7703821499435e-61
2.9901109401197e-60
4.0902123337351e-60
1.0169386361778e-60
1.2903072252509e-58
5.1572589304224e-59
0
3.4442293644078e-57
5.6597994242668e-74
5.0832628377546e-56
9.0903361395491e-55
2.5639619893529e-54
2.1217202981746e-53
9.9712103300984e-53
2.0845196779347e-52
4.266245134593e-52
2.7232522537594e-52
5.6072764856096e-69
3.0401929310262e-53
5.1028355193537e-54
2.142066552022e-67
2.2767952422846e-67
6.0275919110023e-54
1.1070989546643e-49
4.1184276898313e-50
5.5235653617533e-51
4.866478469702e-66
3.2968350126539e-48
6.1115618437773e-48
6.0771633572864e-65
2.1978162835647e-48
6.1044523902256e-64
9.3192628610217e-49
1.0651831160701e-62
1.8347335998357e-62
1.5255529987342e-49
1.2452569327964e-61
3.3368449672375e-50
6.2534074077396e-61
9.8156894472808e-61
1.3900761245668e-51
4.7748710325469e-60
2.8255370678327e-52
1.5823335018573e-59
2.007228887379e-59
6.9392807733971e-52
3.1857983861624e-59
1.0598613883074e-52
3.3973995956417e-59
3.2275529916057e-59
2.5344388058634e-53
1.9798145463164e-57
2.2423322174619e-59
7.7606493654313e-59
5.2948917866206e-60
2.1488843263227e-60
1.1049370356266e-56
1.2952903252708e-56
1.7322272660026e-62
6.5106471404812e-56
2.3410195962067e-58
1.5072764430862e-64
1.1904638876614e-58
1.318125417883e-58
1.5057875590607e-66
2.8278474822579e-67
1.838801651853e-59
7.3577882697311e-60
2.3165111993583e-60
2.7355296472833e-60
6.6529822799875e-61
6.6460641034591e-61
2.0110519993473e-61
1.8513342048085e-61
0
0
0
0
0
0
0
8.8024340852871e-72
1.3536496435051e-69
1.0243750663926e-67
5.0940906748546e-66
1.875716074717e-64
5.4642481654852e-63
1.3132299893207e-61
2.677570992873e-60
4.7210252425487e-59
7.2972510611389e-58
9.9959980044032e-57
1.2258523046241e-55
1.3604703300518e-54
1.383062999231e-53
1.305017810489e-52
1.1578480938253e-51
9.7651104704925e-51
7.8843278537523e-50
6.1103434190093e-49
4.5409741931779e-48
3.2261434496097e-47
2.1832358150615e-46
1.4028926991448e-45
8.539955621729e-45
4.9179723343615e-44
2.6775361770233e-43
1.3780508385812e-42
6.70658982281e-42
3.0879721163748e-41
1.3460662747066e-40
5.5589716514922e-40
2.1765966333779e-39
8.0859654565005e-39
2.8520569561219e-38
9.5574480801149e-38
3.0447373834137e-37
9.2263607324174e-37
2.6608201423912e-36
7.3067174058001e-36
1.9114202197179e-35
4.7655572104215e-35
1.1328838423442e-34
2.5689617896942e-34
5.5592012596637e-34
1.1484756964105e-33
2.2658726054028e-33
4.2703105758568e-33
7.6882300053477e-33
1.3220715847512e-32
2.1701798666626e-32
3.3967136346176e-32
5.0593016809502e-32
7.1473815368866e-32
9.5125022963548e-32
1.1736806815751e-31
1.3088125157859e-31
1.3330834148238e-31
1.3226222804558e-31
1.2823248340937e-31
1.190203825676e-31
1.0329351263344e-31
8.2291208424916e-32
5.896811406907e-32
3.7163622829219e-32
2.0099302831286e-32
9.1268128129943e-33
3.4541998491526e-33
1.1148969980572e-33
3.2504634097419e-34
9.1643269057215e-35
2.6102675588297e-35
7.5873968814177e-36
2.2354662027015e-36
6.6240909556892e-37
1.9670294699747e-37
5.8516597700304e-38
1.7453467754989e-38
5.2222706744857e-39
1.5671951232313e-39
4.712745324368e-40
1.4181486714948e-40
4.264002719847e-41
1.2792615928405e-41
3.8252119202539e-42
1.1390509810305e-42
3.375791729854e-43
9.9540814694112e-44
2.9193759728592e-44
8.5203712306972e-45
2.4629401364115e-45
7.3027020874255e-46
1.6728089817681e-46
1.0693815958183e-46
0
0
0
0
0
0
7.8296723230332e-72
1.8086284805087e-69
1.8510215235579e-67
1.1755585733659e-65
5.3248225497865e-64
1.8572176717039e-62
5.2376501938927e-61
1.2348729411683e-59
2.4913649121555e-58
4.3741731611853e-57
6.7704510531154e-56
9.3356617777049e-55
1.1566407200697e-53
1.2972731896691e-52
1.3274881467813e-51
1.25104339788e-50
1.0980046787465e-49
9.0799398371074e-49
7.145879139203e-48
5.3879848732581e-47
3.903641688308e-46
2.7172849332789e-45
1.81362223015e-44
1.1573620293542e-43
7.0410489293341e-43
4.0733528833035e-42
2.2364955989627e-41
1.1638839608789e-40
5.7364593082352e-40
2.6769144716521e-39
1.1827482336768e-38
4.9491516970718e-38
1.9621398302534e-37
7.3741208284568e-37
2.6285394407551e-36
8.8919546860927e-36
2.8564022106825e-35
8.7185951376034e-35
2.5301698631425e-34
6.9856392949519e-34
1.8361117380163e-33
4.5974159951125e-33
1.0973095411906e-32
2.4980688226275e-32
5.4270427308878e-32
1.1255846125329e-31
2.2292531719899e-31
4.2164816296181e-31
7.6158848273502e-31
1.3132585262705e-30
2.1607364605769e-30
3.3888953830196e-30
5.0583111768445e-30
7.1642813269323e-30
9.5703013190214e-30
1.1887209547638e-29
1.3395354943131e-29
1.3737052879358e-29
1.3650879041233e-29
1.3287614394692e-29
1.2427874687986e-29
1.0900736547918e-29
8.8100774755232e-30
6.4325127805942e-30
4.1541242510569e-30
2.3187003980715e-30
1.0952654048429e-30
4.3383615748684e-31
1.4656736739835e-31
4.4368736095305e-32
1.2832392770495e-32
3.7161234669139e-33
1.0948364804234e-33
3.2713285143297e-34
9.8467482769367e-35
2.9746177409777e-35
9.012077399966e-36
2.7395913490057e-36
8.3587284422741e-37
2.5584351040223e-37
7.8458515590452e-38
2.4065115795147e-38
7.3693590528915e-39
2.2494121434627e-39
6.8355520050466e-40
2.066271070852e-40
6.2101203883368e-41
1.8552771058052e-41
5.5084703437983e-42
1.6264142712979e-42
4.7528267760173e-43
1.4245345231367e-43
3.2841388381603e-44
2.1356714664148e-44
0
0
0
0
0
3.6329112929428e-72
1.116659976885e-69
1.4838951901691e-67
1.1799635140018e-65
6.5068680447319e-64
2.7035448258872e-62
8.9236043667116e-61
2.4280686988545e-59
5.5935871494944e-58
1.1124374129085e-56
1.9382705157124e-55
2.9937440722299e-54
4.1374176766182e-53
5.1558081117588e-52
5.8319089026197e-51
6.0242295032955e-50
5.7166290868355e-49
5.0185902856183e-48
4.1152187791659e-47
3.1893685481638e-46
2.3622314727626e-45
1.6833234948988e-44
1.1554742533735e-43
7.6205593973763e-43
4.8113329973613e-42
2.8992810948123e-41
1.6642677206027e-40
9.0903888340008e-40
4.7214313477961e-39
2.3306172982478e-38
1.0928602089896e-37
4.8657733920003e-37
2.0561063685197e-36
8.24299654584e-36
3.1343257605532e-35
1.1301454256061e-34
3.8637347250321e-34
1.2524385275941e-33
3.8496462833261e-33
1.1222585300866e-32
3.1040607843208e-32
8.1502678757994e-32
2.0330992392815e-31
4.8233869258856e-31
1.0898010421044e-30
2.3488904095188e-30
4.8383332238687e-30
9.5417379011304e-30
1.8041985898739e-29
3.2732744563302e-29
5.6965452099393e-29
9.497476043291e-29
1.5135915848677e-28
2.2988640774655e-28
3.31450213156e-28
4.5087466492145e-28
5.7140496374488e-28
6.588972624213e-28
6.8614573660309e-28
6.8363950908741e-28
6.6903244346616e-28
6.3180974928205e-28
5.6146426017362e-28
4.6126926473867e-28
3.4362548054775e-28
2.2750862939141e-28
1.3098389725033e-28
6.4259228100498e-29
2.6583881621296e-29
9.3875098075522e-30
2.9515250119998e-30
8.771025391115e-31
2.5866206248051e-31
7.7310749060307e-32
2.3434970875269e-32
7.166529892498e-33
2.202898509009e-33
6.7995840841461e-34
2.1078891092337e-34
6.562687218549e-35
2.0502804690711e-35
6.4166808311422e-36
2.0074071176652e-36
6.2638532462847e-37
1.9459498777355e-37
6.0108889671693e-38
1.8447044217971e-38
5.6226135747867e-39
1.7018949750813e-39
5.1154602404127e-40
1.5279621434527e-40
4.5139364789161e-41
1.367662684047e-41
3.1725233575527e-42
2.099717921605e-42
0
0
0
0
0
2.8207518464457e-70
6.2553627970814e-68
6.6977195609143e-66
4.6084901453083e-64
2.2995527836057e-62
8.9048045857386e-61
2.7956214199061e-59
7.3403180468308e-58
1.6489793886225e-56
3.2234587453187e-55
5.5562751395673e-54
8.5345335059605e-53
1.1780118383122e-51
1.4712845644765e-50
1.6730954907804e-49
1.741352040068e-48
1.6661408594037e-47
1.4722728318992e-46
1.2087130425099e-45
9.3002275314297e-45
6.7867114183871e-44
4.7589668082053e-43
3.2392757295134e-42
2.148855691601e-41
1.3870875121623e-40
8.6737561254518e-40
5.2277627895478e-39
3.0224832024661e-38
1.6692495414003e-37
8.7745787393815e-37
4.3772983463209e-36
2.0676478690553e-35
9.2324301756331e-35
3.8924340127198e-34
1.5482962977555e-33
5.8074945797738e-33
2.0533659897332e-32
6.8415840275703e-32
2.147481080217e-31
6.3479448949084e-31
1.7663935092022e-30
4.6247836756336e-30
1.1388270629308e-29
2.6368224904633e-29
5.7418204001152e-29
1.1770919495194e-28
2.2770170218848e-28
4.1730357758649e-28
7.2873313178841e-28
1.2210644498987e-27
1.9766948752868e-27
3.1070144321459e-27
4.7495320209321e-27
7.0438294959876e-27
1.0072994607182e-26
1.3760119677136e-26
1.7696446725144e-26
2.0903171760506e-26
2.2236303779734e-26
2.2243533482134e-26
2.1902176401864e-26
2.0878398241668e-26
1.8820849508915e-26
1.5732154305912e-26
1.196682956419e-26
8.1247116565798e-27
4.8223133454327e-27
2.4537142895569e-27
1.0582470160321e-27
3.9007059570271e-28
1.2738217791561e-28
3.8946431017325e-29
1.1714955159937e-29
3.5560178641028e-30
1.0941544266081e-30
3.4004884039396e-31
1.0639631287259e-31
3.3475233228175e-32
1.0589617640278e-32
3.3669336366355e-33
1.0745512540246e-33
3.4348456648357e-34
1.096776811011e-34
3.4892762972197e-35
1.1037089522209e-35
3.4664150934981e-36
1.0802189351002e-36
3.3393315030483e-37
1.0241427961714e-37
3.1164199561275e-38
9.417257727693e-39
2.8125594872339e-39
8.6150193851773e-40
2.0102427487561e-40
1.3548992072888e-40
0
0
0
0
8.7585938142668e-81
1.0627133516632e-68
2.0642455251178e-66
1.9818320296444e-64
1.2500705173402e-62
5.8229516069899e-61
2.1361122234411e-59
6.42847339568e-58
1.6334263055948e-56
3.5784568543429e-55
6.8655949679847e-54
1.1680068450252e-52
1.7790968514815e-51
2.4451134083971e-50
3.0517885477761e-49
3.4782406561827e-48
3.6371131141748e-47
3.5039111235905e-46
3.1211798183402e-45
2.5786690072754e-44
1.9845695363927e-43
1.4356161101649e-42
9.9201597612006e-42
6.689588993464e-41
4.48828634583e-40
3.0238530859855e-39
2.0386468830979e-38
1.3585565773099e-37
8.8136237496665e-37
5.490180728624e-36
3.2492674257885e-35
1.8137551046693e-34
9.5044237080039e-34
4.6621837410909e-33
2.1373196715047e-32
9.1499115513851e-32
3.6567745432252e-31
1.3642379501198e-30
4.7511781443607e-30
1.5446403745734e-29
4.687453591935e-29
1.3275862171306e-28
3.5081560187514e-28
8.6448705882625e-28
1.984742381698e-27
4.2390823686508e-27
8.405444764192e-27
1.5437899245939e-26
2.6229200817234e-26
4.129305969936e-26
6.0664897760499e-26
8.431114786733e-26
1.1288477427432e-25
1.4826722949081e-25
1.9348222037332e-25
2.517742011077e-25
3.2452508029239e-25
4.0734779206176e-25
4.8357105233366e-25
5.2479482350341e-25
5.2894064659675e-25
5.2321254451459e-25
5.0334192439664e-25
4.6042042042935e-25
3.9183499586704e-25
3.0455461014089e-25
2.1211705101256e-25
1.2977831525919e-25
6.8440181200227e-26
3.0737600409968e-26
1.1815975735171e-26
4.0082323978674e-27
1.2623260901735e-27
3.8785478236034e-28
1.1969736412283e-28
3.7408774235128e-29
1.182074048364e-29
3.7663576767703e-30
1.2085734692906e-30
3.9042051377792e-31
1.2687369299704e-31
4.1401229030208e-32
1.3528632597688e-32
4.4125308556497e-33
1.4321602668072e-33
4.6147448712554e-34
1.4741360159316e-34
4.6655977538539e-35
1.4630299068825e-35
4.5467729820781e-36
1.4007991106128e-36
4.2826841802512e-37
1.2931729709199e-37
4.0048685211624e-38
9.3978996833247e-39
6.4550258431416e-39
0
0
0
0
3.9000315294393e-79
2.5973863003484e-67
4.7077228107213e-65
4.24619032757e-63
2.5359288265121e-61
1.1269043102737e-59
3.9713277517294e-58
1.1553989595416e-56
2.8541266153236e-55
6.1093208929999e-54
1.150484787699e-52
1.9294042278385e-51
2.9083523225116e-50
3.9698634196848e-49
4.9383138558747e-48
5.6256540517622e-47
5.8937552929701e-46
5.702412649295e-45
5.1134752787917e-44
4.2578676466658e-43
3.2947410809934e-42
2.3781859838006e-41
1.6246631810692e-40
1.0826286781457e-39
7.3116913502771e-39
5.1338650635434e-38
3.7351256188299e-37
2.7420227280896e-36
1.967695177674e-35
1.3465966401325e-34
8.6556502738475e-34
5.18426993845e-33
2.8832209056265e-32
1.487264370835e-31
7.1161718066823e-31
3.1601607920612e-30
1.303514110965e-29
4.9981150306803e-29
1.7826897236544e-28
5.9177025145403e-28
1.8288561649308e-27
5.2628783253454e-27
1.4101673906797e-26
3.5166941234803e-26
8.154077386653e-26
1.7551637784227e-25
3.5000957948909e-25
6.4480508559365e-25
1.0927494845571e-24
1.6943201314372e-24
2.3943021130772e-24
3.0968160208347e-24
3.7342396517323e-24
4.3184316191778e-24
4.9219141270328e-24
5.6377553806626e-24
6.5479306138082e-24
7.6718999982644e-24
8.8554510116328e-24
9.6598250113378e-24
9.8150924357321e-24
9.7410214282634e-24
9.444977357109e-24
8.7588062177721e-24
7.5896684811468e-24
6.0318442394241e-24
4.3124826163362e-24
2.71989409245e-24
1.4853182218352e-24
6.9355567732835e-25
2.7763745030872e-25
9.7797012287839e-26
3.1759496386894e-26
9.9853144553558e-27
3.1379162505463e-27
9.9714559770449e-28
3.205892738758e-28
1.0408598856602e-28
3.4088251073653e-29
1.1254536896152e-29
3.7415939083708e-30
1.2496028052241e-30
4.1781696761702e-31
1.3932081625163e-31
4.616589660127e-32
1.5162207373032e-32
4.9283437616838e-33
1.5846802665263e-33
5.0417366532383e-34
1.5879971536746e-34
4.9540070531619e-35
1.5325690243138e-35
4.6791878496293e-36
1.4653583358436e-36
3.4571015264766e-37
2.4218487115138e-37
0
0
0
0
1.2062182130796e-78
4.6399534860888e-66
8.0755969253206e-64
7.0096504825445e-62
4.0404189507873e-60
1.7383295322376e-58
5.950058897824e-57
1.6866725241159e-55
4.0718623598505e-54
8.5427203341136e-53
1.58131433576e-51
2.6143237824992e-50
3.8961249186719e-49
5.2728546984211e-48
6.5226996043449e-47
7.409297538644e-46
7.7582454226444e-45
7.5189045381288e-44
6.7694145691973e-43
5.6743275268754e-42
4.4250810590815e-41
3.2055723262357e-40
2.1751275237918e-39
1.4288283253942e-38
9.6075227972528e-38
6.9126941576705e-37
5.3076924309798e-36
4.1734569622681e-35
3.211302176453e-34
2.3431331455742e-33
1.5932901722696e-32
1.0014929231286e-31
5.8029741571241e-31
3.0999160692502e-30
1.5289454007051e-29
6.9763730594987e-29
2.9505348885828e-28
1.1585500498738e-27
4.228717634922e-27
1.4359677288517e-26
4.5385308922253e-26
1.3352774251985e-25
3.6561814705485e-25
9.3116562867883e-25
2.2034182993707e-24
4.8367438799276e-24
9.8286243314416e-24
1.8434444356584e-23
3.1767884921489e-23
4.9929784414839e-23
7.0918101663983e-23
9.062770599208e-23
1.0394692531725e-22
1.1019967401429e-22
1.1338827030298e-22
1.1646122710056e-22
1.2101945709978e-22
1.2818980743732e-22
1.3790441944857e-22
1.4680915350815e-22
1.4952351730712e-22
1.4877773239631e-22
1.4517917880598e-22
1.3609329395959e-22
1.1967223035088e-22
9.6878874940771e-23
7.0849671624656e-23
4.5939729283026e-23
2.5938881576498e-23
1.2588762138901e-23
5.2519690763141e-24
1.9241893248375e-24
6.4565446043883e-25
2.0809282783423e-25
6.6673132378733e-26
2.1560739956403e-26
7.0577053780006e-27
2.336490700081e-27
7.8156777714319e-28
2.6395532713386e-28
8.9860121666759e-29
3.0746330571217e-29
1.0529617548296e-29
3.5928644267799e-30
1.2164699487657e-30
4.0749512105735e-31
1.3484764540611e-31
4.406902413448e-32
1.4229805284927e-32
4.5435077663138e-33
1.4355427851868e-33
4.4944444504409e-34
1.3877167451954e-34
4.3954065371902e-35
1.0422113353947e-35
7.4537615877405e-36
0
0
0
0
3.6723119757043e-79
6.4685222939628e-65
1.0978321387006e-62
9.2979615561438e-61
5.2347299592206e-59
2.2025245065075e-57
7.382940835119e-56
2.0525644076122e-54
4.8669041259917e-53
1.0043903735081e-51
1.8317607204609e-50
2.9888170202096e-49
4.4042859344678e-48
5.9055307434589e-47
7.2539373247259e-46
8.2009977268302e-45
8.5654414579809e-44
8.2963865447344e-43
7.479252200194e-42
6.2940887873872e-41
4.944147492538e-40
3.6087195536721e-39
2.446843968772e-38
1.5841302631435e-37
1.0467893804188e-36
7.5381871661334e-36
5.9427990216071e-35
4.8725674009482e-34
3.9249242634625e-33
2.9933559165099e-32
2.121679039629e-31
1.3867261943181e-30
8.3365399500449e-30
4.6095697523092e-29
2.3473521952076e-28
1.1030738771517e-27
4.7941217775414e-27
1.931095211131e-26
7.2216692876057e-26
2.5104733703169e-25
8.1189024637871e-25
2.4435422253957e-24
6.8439925934972e-24
1.7830878755911e-23
4.3174375796932e-23
9.7024263933888e-23
2.0197555035015e-22
3.8842341115673e-22
6.8725802682991e-22
1.1116427494707e-21
1.626681621605e-21
2.1158853695806e-21
2.4026623628973e-21
2.4556388900433e-21
2.4368411870127e-21
2.3692934957806e-21
2.2413967985423e-21
2.0906396470381e-21
2.0004923663595e-21
1.9766605660949e-21
1.9625697744759e-21
1.9358243783472e-21
1.8761049353936e-21
1.7574094552244e-21
1.5596985382449e-21
1.2844711546749e-21
9.6180137534985e-22
6.4204001142418e-22
3.7515017329438e-22
1.8928963834469e-22
8.2313503283769e-23
3.1388148109982e-23
1.0897787107522e-23
3.6066452264655e-24
1.1798266302764e-24
3.8862932464106e-25
1.2960977704952e-25
4.3779194855047e-26
1.496808172653e-26
5.1751915839089e-27
1.8058051427774e-27
6.3363245898344e-28
2.2248485314102e-28
7.7759646240225e-29
2.69257003808e-29
9.2070061529165e-30
3.1039587617165e-30
1.0315523098297e-30
3.3819504318341e-31
1.0950262592959e-31
3.5049424658593e-32
1.1107940764012e-32
3.4690879378262e-33
1.1115775930263e-33
2.6480709171962e-34
1.9355982965336e-34
0
0
0
0
3.0664980123234e-96
7.3360557648849e-64
1.2252925512044e-61
1.0212451582975e-59
5.6595288755627e-58
2.3449115650652e-56
7.7442135820545e-55
2.1225000898516e-53
4.9644760878498e-52
1.0113055267628e-50
1.8219779704821e-49
2.939257336294e-48
4.2867780545486e-47
5.6959210171177e-46
6.9429344717818e-45
7.802917660855e-44
8.116619885098e-43
7.8432973338865e-42
7.0651668032484e-41
5.9520120985663e-40
4.6970735679235e-39
3.4577727513842e-38
2.3574971328229e-37
1.5106546886535e-36
9.7103527413935e-36
6.823989661759e-35
5.3720354937094e-34
4.4901028426202e-33
3.7227209019725e-32
2.9311851554297e-31
2.1469233180274e-30
1.4509667963852e-29
9.0269203231053e-29
5.1698871459438e-28
2.7281453650237e-27
1.3279385207669e-26
5.9700110051123e-26
2.4828415323546e-25
9.569084608434e-25
3.4234993398102e-24
1.1385005015036e-23
3.5224005060782e-23
1.0142052874003e-22
2.7169229588083e-22
6.7661211906579e-22
1.5642079694697e-21
3.3499855550231e-21
6.6277675965117e-21
1.2065339209753e-20
2.0086292798016e-20
3.0260532001079e-20
4.0320624373786e-20
4.6160959124856e-20
4.6916227341529e-20
4.6255923000539e-20
4.4051118480399e-20
3.9702595843045e-20
3.3867364121486e-20
2.8423458379063e-20
2.4807301264547e-20
2.2904836112042e-20
2.176953766324e-20
2.0694670147207e-20
1.9260023693129e-20
1.7180658259805e-20
1.4363889568497e-20
1.1007481687002e-20
7.5697263859945e-21
4.5822716479198e-21
2.4062689395659e-21
1.0916140268496e-21
4.3363555919513e-22
1.5595887495284e-22
5.3065369010249e-23
1.7741133945875e-23
5.9567548612521e-24
2.0251179281477e-24
6.9830258298965e-25
2.4417954674045e-25
8.6494495124779e-26
3.0960793129373e-26
1.1151413624526e-26
4.0186046659176e-27
1.4401428237713e-27
5.1052201804564e-28
1.7836583491726e-28
6.1312996415088e-29
2.0735711184574e-29
6.9063512602177e-30
2.26861004023e-30
7.3586068240092e-31
2.361360968531e-31
7.4610828875284e-32
2.4191999188195e-32
5.7878174220907e-33
4.3293040761956e-33
0
0
0
1.9118960770907e-91
3.9220254199605e-77
6.9653607227197e-63
1.151618071178e-60
9.4987397447167e-59
5.2087528936929e-57
2.1354935158685e-55
6.9792055933738e-54
1.8932256343928e-52
4.3835641957178e-51
8.8414668322831e-50
1.5775908104687e-48
2.5213282214957e-47
3.6446904300659e-46
4.8028814572007e-45
5.8104194867709e-44
6.4882267953727e-43
6.7151647892203e-42
6.465521974138e-41
5.8106165940155e-40
4.8897326167422e-39
3.8641117016647e-38
2.8628420746077e-37
1.9703916698071e-36
1.2604476986666e-35
7.8676271290093e-35
5.2761651312996e-34
4.0250108532136e-33
3.3534386842096e-32
2.8231312951883e-31
2.2760267236423e-30
1.7132733597018e-29
1.1926895705593e-28
7.6596484781823e-28
4.5384315226107e-27
2.4829336022963e-26
1.2557168043682e-25
5.8772268700391e-25
2.5477372645651e-24
1.0237206989011e-23
3.8169884438208e-23
1.3221826474026e-22
4.2586565369515e-22
1.2757620809005e-21
3.5526286256509e-21
9.184573260451e-21
2.2002020881769e-20
4.8710801005616e-20
9.9337270463186e-20
1.858167132109e-19
3.1682945265914e-19
4.8693980927043e-19
6.5842050014573e-19
7.572605398556e-19
7.6829690301301e-19
7.5508531208764e-19
7.1107120815895e-19
6.2354382736141e-19
5.0285960121268e-19
3.8218503484936e-19
2.9294103465121e-19
2.4236664382308e-19
2.1625386364265e-19
1.9927301896663e-19
1.8304110944044e-19
1.6329510256595e-19
1.3809920570115e-19
1.0808685265334e-19
7.6521618956187e-20
4.8001695799351e-20
2.6254030817932e-20
1.2437611245705e-20
5.1529924798667e-21
1.9222565297852e-21
6.7321768673377e-22
2.3021793260281e-22
7.8829550800153e-23
2.7328203752288e-23
9.623210861719e-24
3.4431514013677e-24
1.2503229227223e-24
4.5946981949476e-25
1.7002625474305e-25
6.2948147674229e-26
2.3156150255077e-26
8.4132993135245e-27
3.0067378231464e-27
1.054940201299e-27
3.6338869730304e-28
1.230461847437e-28
4.1027690029581e-29
1.3492109847985e-29
4.3854050840633e-30
1.4022531260868e-30
4.6023349389882e-31
1.1052545951286e-31
8.4725444483521e-32
0
0
0
3.3853316953783e-88
8.9553498817689e-76
5.6535605785495e-62
9.28945601854e-60
7.6117492386818e-58
4.145389744525e-56
1.6875467343803e-54
5.4756341785279e-53
1.4745929794224e-51
3.3893135434871e-50
6.7858701436448e-49
1.2019188357761e-47
1.9067990626613e-46
2.7363177423419e-45
3.5803689440437e-44
4.3018605074536e-43
4.7733987581895e-42
4.9134925632514e-41
4.709823945736e-40
4.2184393187146e-39
3.5409754839043e-38
2.7949621901826e-37
2.0763327057672e-36
1.4419765703763e-35
9.2880431143991e-35
5.6840525648514e-34
3.5973770561998e-33
2.5763207579622e-32
2.0798471784738e-31
1.7505012910849e-30
1.4346815582758e-29
1.1059177842822e-28
7.911299915673e-28
5.2325565633826e-27
3.2002438969711e-26
1.8127769973655e-25
9.5251883618134e-25
4.6497260566344e-24
2.1121930003195e-23
8.9345628899435e-23
3.5162434112283e-22
1.2857229690713e-21
4.3631639534477e-21
1.3730420446872e-20
4.0030357806479e-20
1.0797283969319e-19
2.6889990928819e-19
6.1669667789233e-19
1.2979105188981e-18
2.4954678532209e-18
4.3549679901675e-18
6.8146331396853e-18
9.3115579037375e-18
1.0723977600821e-17
1.0847843301422e-17
1.0626596893159e-17
9.9032996386206e-18
8.4867186821734e-18
6.5556825528042e-18
4.6178607616316e-18
3.1585255749112e-18
2.3186839326136e-18
1.9086951191618e-18
1.6895248132517e-18
1.5257035940092e-18
1.3573974300937e-18
1.1580014950821e-18
9.2345988778283e-19
6.718869652378e-19
4.3631307768425e-19
2.4846401844922e-19
1.2296237085137e-19
5.3192038289866e-20
2.0616936728623e-20
7.4458437791941e-21
2.6079554640963e-21
9.1132672969281e-22
3.2225105540016e-22
1.1590050142754e-22
4.2442221332773e-23
1.5806545052388e-23
5.9670299295633e-24
2.270491774261e-24
8.6446798901829e-25
3.2680794615396e-25
1.2185300488471e-25
4.4602861089897e-26
1.5992809277555e-26
5.6172187451604e-27
1.9354287151762e-27
6.5552568248143e-28
2.1867127551606e-28
7.2021730239364e-29
2.3312887079158e-29
7.7478855129874e-30
1.8666120097009e-30
1.4688387204426e-30
0
0
0
6.5059969154324e-88
8.5621251571707e-75
3.9851173791561e-61
6.5257297026249e-59
5.3267232755067e-57
2.8888162138123e-55
1.1707288119782e-53
3.7807284206639e-52
1.0131437449508e-50
2.3167998557205e-49
4.6140910029811e-48
8.128272338506e-47
1.282313363377e-45
1.8296366803503e-44
2.3801933730713e-43
2.8431080154251e-42
3.1366078385445e-41
3.2113566548493e-40
3.0635044928275e-39
2.7327216994512e-38
2.2860544757617e-37
1.7994409750929e-36
1.3359468050807e-35
9.3269677033813e-35
6.0698174534057e-34
3.6978166519249e-33
2.2273219722794e-32
1.4635854843124e-31
1.1027300748361e-30
9.0491268646862e-30
7.4569860695261e-29
5.8644657642888e-28
4.305907695971e-27
2.9298742457461e-26
1.8468272651594e-25
1.0810360006706e-24
5.8932739575117e-24
2.9998563942551e-23
1.4277511477875e-22
6.360358324317e-22
2.6519940143702e-21
1.0319029011698e-20
3.7282296091918e-20
1.2448536009465e-19
3.8290437823749e-19
1.0828072701444e-18
2.8104503337785e-18
6.6809126909276e-18
1.4502185006037e-17
2.8617857237857e-17
5.1011896854485e-17
8.1111796929462e-17
1.1183108596122e-16
1.2890261126171e-16
1.3015555879416e-16
1.2709383560305e-16
1.1739857993045e-16
9.8702989947484e-17
7.3653316770644e-17
4.8850954455698e-17
3.0356019014857e-17
1.9838962525834e-17
1.49312409024e-17
1.2622018932404e-17
1.1189210448392e-17
9.9222995419482e-18
8.5300401387162e-18
6.9201382941706e-18
5.1653245183494e-18
3.4666012675655e-18
2.0527950310698e-18
1.0608017030238e-18