/*--------------------------------*- C++ -*----------------------------------*\
  =========                 |
  \\      /  F ield         | OpenFOAM: The Open Source CFD Toolbox
   \\    /   O peration     | Website:  https://openfoam.org
    \\  /    A nd           | Version:  7
     \\/     M anipulation  |
\*---------------------------------------------------------------------------*/
FoamFile
{
    version     2.0;
    format      ascii;
    class       volScalarField;
    location    "0.9";
    object      alpha.water;
}
// * * * * * * * * * * * * * * * * * * * * * * * * * * * * * * * * * * * * * //

dimensions      [0 0 0 0 0 0 0];

internalField   nonuniform List<scalar> 
6000
(
0
0
0
0
0
0
0
0
0
0
0
0
0
0
0
0
0
0
0
0
0
0
0
0
0
0
0
0
0
0
0
0
0
0
0
0
0
0
0
0
0
0
0
0
0
0
0
0
0
0
0
0
0
0
0
0
0
0
0
0
0
0
0
0
0
0
0
0
0
0
0
0
0
0
0
0
0
0
0
0
0
0
0
0
0
0
0
0
0
0
0
0
0
0
0
0
0
0
0
0
0
0
0
0
0
0
0
0
0
0
0
0
0
0
0
0
0
0
0
0
0
0
0
0
0
0
0
0
0
0
0
0
0
0
0
0
0
0
0
0
0
0
0
0
0
0
0
0
0
0
0
0
0
0
0
0
0
0
0
0
0
0
0
0
0
0
0
0
0
0
0
0
0
0
0
0
0
0
0
0
0
0
0
0
0
0
0
0
0
0
0
0
0
0
0
0
0
0
0
0
0
0
0
0
0
0
0
0
0
0
0
0
0
0
0
0
0
0
0
0
0
0
0
0
0
0
0
0
0
0
0
0
0
0
0
0
0
0
0
0
0
0
0
0
0
0
0
0
0
0
0
0
0
0
0
0
0
0
0
0
0
0
0
0
0
0
0
0
0
0
0
0
0
0
0
0
0
0
0
0
0
0
0
0
0
0
0
0
0
0
0
0
0
0
0
0
0
0
0
0
0
0
0
0
0
0
0
0
0
0
0
0
0
0
0
0
0
0
0
0
0
0
0
0
0
0
0
0
0
0
0
0
0
0
0
0
0
0
0
0
0
0
0
0
0
0
0
0
0
0
0
0
0
0
0
0
0
0
0
0
0
0
0
0
0
0
0
0
0
0
0
0
0
0
0
0
0
0
0
0
0
0
0
0
0
0
0
0
0
0
0
0
0
0
0
0
0
0
0
0
0
0
0
0
0
0
0
0
0
8.8969382101608e-41
2.5892393736598e-39
3.7164638462946e-38
3.5062324883229e-37
2.4453407362904e-36
1.3444243868991e-35
6.0680163265554e-35
2.3120394288624e-34
7.5897654605442e-34
2.1801164090405e-33
5.546769248666e-33
1.262325794819e-32
2.5904510095945e-32
4.8258832966841e-32
8.2082628807944e-32
1.280908987494e-31
1.8416618349258e-31
2.4486261825005e-31
3.0203477820258e-31
3.466170458071e-31
3.710209989517e-31
3.7126187313772e-31
3.4799244031219e-31
3.0609143484072e-31
2.5306353572895e-31
1.9694283436137e-31
1.4446274921267e-31
9.9998508665598e-32
6.5391236618558e-32
4.0434730401946e-32
2.3663401706619e-32
1.3116783363328e-32
6.8914282727935e-33
3.4339481394443e-33
1.6237537731685e-33
7.2895100458418e-34
3.1082054581094e-34
1.2592405119809e-34
4.8486747385636e-35
1.7748241065991e-35
6.1770757855245e-36
2.0443643432809e-36
6.4344196138904e-37
1.9259251855145e-37
5.4818455601585e-38
1.4836273312382e-38
3.8173429883762e-39
9.3354974024428e-40
2.1693436619159e-40
4.7882960608265e-41
1.0034912113376e-41
1.9957887825261e-42
3.7647923925633e-43
6.7315833353554e-44
1.1400730036359e-44
1.8274269022522e-45
2.769826801211e-46
3.9658988281644e-47
5.3583705247906e-48
6.8234227150125e-49
8.1784835016961e-50
9.213143163801e-51
9.7388107907288e-52
9.6425867975734e-53
8.9251755278144e-54
7.706043028049e-55
6.1914386396204e-56
4.6167396369374e-57
3.185431375402e-58
2.0269452337041e-59
1.1850295520994e-60
6.3385600757344e-62
3.0869836137058e-63
1.3613263019365e-64
5.4013215525568e-66
1.9138281559562e-67
6.00241396107e-69
1.6486929761919e-70
3.9143596392313e-72
7.9019845080956e-74
1.3276219126575e-75
1.8033606282717e-77
1.8995760252134e-79
1.453398337053e-81
7.1736176089381e-84
1.7117390276102e-86
0
0
0
0
0
0
0
0
0
0
0
0
-8.2234148861623e-31
-1.995851820242e-29
-2.3611257008622e-28
-1.8065164894196e-27
-9.9762606839445e-27
-4.1836469928182e-26
-1.3522414880741e-25
-3.2668754849866e-25
-4.9530696388954e-25
1.3482558029094e-25
4.0839262025617e-24
1.7343831398345e-23
5.1193125878236e-23
1.2273276716893e-22
2.523844036195e-22
4.574365138303e-22
7.4296263241999e-22
1.0939622211687e-21
1.4734314671971e-21
1.8289766149678e-21
2.1063227589085e-21
2.2642820394171e-21
2.2849749837447e-21
2.1757854876312e-21
1.9637247221848e-21
1.6859010715732e-21
1.3802380670468e-21
1.0789949133146e-21
8.0560299129166e-22
5.7406866630926e-22
3.899356562837e-22
2.5207246440732e-22
1.5483118055453e-22
9.0228306626032e-23
4.9822075000599e-23
2.6040122107919e-23
1.287219470087e-23
6.0142322724869e-24
2.654728525023e-24
1.1066554669781e-24
4.3553768733781e-25
1.6178648642888e-25
5.6708120902752e-26
1.8750326185788e-26
5.8464076845562e-27
1.7183712092166e-27
4.758738375905e-28
1.2410108122093e-28
3.0457008751451e-29
7.0290645470507e-30
1.5241331767956e-30
3.1018407729022e-31
5.9180136959296e-32
1.0570743666677e-32
1.7649670262924e-33
2.7498023471833e-34
3.9895425782335e-35
5.377725769645e-36
6.7170643897524e-37
7.7507966430752e-38
8.2333703622286e-39
8.0188048340842e-40
7.126628288472e-41
5.7475074819347e-42
4.1784790635484e-43
2.7166750752633e-44
1.5642561334272e-45
7.8806425394677e-47
3.4204310108355e-48
1.2532145532008e-49
3.7693757429823e-51
8.9368908643331e-53
1.5661897971012e-54
1.8037762362624e-56
1.0241451041897e-58
1.8639419999675e-64
6.6999200051369e-66
2.1312740721786e-67
5.936283265224e-69
1.4289404887901e-70
2.9240684395922e-72
4.9790353961988e-74
6.8532471026754e-76
7.313731944428e-78
5.6684330689143e-80
2.8336217490062e-82
6.8469561104408e-85
0
0
0
0
0
0
0
0
0
0
0
0
-3.6479721140245e-29
-9.6784586094094e-28
-1.2616555321425e-26
-1.0769483806531e-25
-6.768912721926e-25
-3.339824921332e-24
-1.3467446954365e-23
-4.5617301707383e-23
-1.323806532886e-22
-3.3397629523819e-22
-7.4055126155469e-22
-1.4549410896437e-21
-2.5467358916296e-21
-3.9830502712114e-21
-5.5630807309795e-21
-6.8982065164782e-21
-7.4716460580353e-21
-6.7784903973495e-21
-4.5039006270449e-21
-6.6975351328726e-22
4.3144981765138e-21
9.7246212957163e-21
1.4697312852727e-20
1.8449612432297e-20
2.0469199904696e-20
2.06169267561e-20
1.9117330349856e-20
1.6453196543296e-20
1.3210518124912e-20
9.9293676881094e-21
7.003217390874e-21
4.6431462008634e-21
2.8976713820618e-21
1.7039911658881e-21
9.450107673343e-22
4.946041927379e-22
2.4444050751866e-22
1.1412330998345e-22
5.0350606179286e-23
2.09971694046e-23
8.2773709237102e-24
3.0846266790449e-24
1.0865422899169e-24
3.6168583735349e-25
1.1374053448103e-25
3.3775851588223e-26
9.4659146909648e-27
2.5020192180369e-27
6.2322414181318e-28
1.4615802076263e-28
3.2237976699373e-29
6.6797601661673e-30
1.2984274046126e-30
2.3641892716756e-31
4.0254919829391e-32
6.3973841955075e-33
9.4690119637651e-34
1.3022042541752e-34
1.6593598516805e-35
1.9531699183826e-36
2.1160827400901e-37
2.1015370791315e-38
1.9040680511157e-39
1.5650888203709e-40
1.1593750164875e-41
7.6784325779793e-43
4.502509046603e-44
2.3094265677808e-45
1.0202472567851e-46
3.8038324712695e-48
1.1639368666196e-49
2.8067694276628e-51
5.0017809360103e-53
5.8563284935887e-55
3.379603597767e-57
3.1681954243259e-63
1.155525026984e-64
3.7289692299251e-66
1.0534550777003e-67
2.5714735568339e-69
5.3350556494067e-71
9.2087229282217e-73
1.2846204274983e-74
1.3892015611959e-76
1.0908436826332e-78
5.5238503137638e-81
1.3518458970551e-83
0
0
0
0
0
0
0
0
0
0
0
0
1.2110607246881e-30
-4.4630234592686e-28
-1.2009971456083e-26
-1.5516832739297e-25
-1.307555385613e-24
-8.1149889048739e-24
-3.9604820431432e-23
-1.5833543331844e-22
-5.3312302158034e-22
-1.5423265088423e-21
-3.8917487769495e-21
-8.6648144379995e-21
-1.7175855386817e-20
-3.0519340653671e-20
-4.8841988140012e-20
-7.0581945346454e-20
-9.2098808215963e-20
-1.0810168425442e-19
-1.1298842606658e-19
-1.0273483171951e-19
-7.6582735254964e-20
-3.7742225678843e-20
7.283267848012e-21
5.0524000432809e-20
8.4801356672836e-20
1.0556510676056e-19
1.1171658078044e-19
1.0528996179097e-19
9.0302260988683e-20
7.1317045999971e-20
5.2242980258577e-20
3.5671321452888e-20
2.2782172767758e-20
1.3646688968357e-20
7.6834042756214e-21
4.0732708703827e-21
2.0362364131752e-21
9.6098936574349e-22
4.2855806667542e-22
1.8071173698229e-22
7.2082270013346e-23
2.7203068503262e-23
9.712872860108e-24
3.2804376103982e-24
1.0476453593456e-24
3.1621139955171e-25
9.0146211306107e-26
2.4254759162222e-26
6.1538405986693e-27
1.4708271524667e-27
3.307901736563e-28
6.9914542060614e-29
1.3867192665702e-29
2.5770652103681e-30
4.4792761477191e-31
7.2673540207181e-32
1.0981719140559e-32
1.5417480603236e-33
2.0053673019753e-34
2.4090204423401e-35
2.6631169408117e-36
2.6980379155573e-37
2.493063316134e-38
2.0893431612235e-39
1.5775795883796e-40
1.0646623199407e-41
6.3597761736117e-43
3.3221337174398e-44
1.4942546205399e-45
5.6706205648439e-47
1.7656967899251e-48
4.3317378308698e-50
7.8513390871331e-52
9.3477353392711e-54
5.4841343449975e-56
3.5356289108381e-62
1.3087710665766e-63
4.2855788024037e-65
1.228238025664e-66
3.0409308032964e-68
6.3978800433448e-70
1.1196607098545e-71
1.5833299222311e-73
1.7353750996843e-75
1.3808482147624e-77
7.0844399775086e-80
1.7562870358037e-82
0
0
0
0
0
0
0
0
0
0
0
0
0
1.6700819258605e-29
-2.6563172333497e-27
-7.3327897143347e-26
-9.4333345884073e-25
-7.8693207259521e-24
-4.8295162229049e-23
-2.3315852664732e-22
-9.2270209354426e-22
-3.0769190235688e-21
-8.8173928102931e-21
-2.2032918701396e-20
-4.8545762731957e-20
-9.5124301616257e-20
-1.6683261087515e-19
-2.6308540073632e-19
-3.7407673016383e-19
-4.800838030463e-19
-5.5545697267434e-19
-5.7670883876856e-19
-5.313613287686e-19
-4.2320915353647e-19
-2.7140540539368e-19
-1.0408585326622e-19
5.0218689212888e-20
1.6981810052287e-19
2.4367120074345e-19
2.7155363720542e-19
2.6156183804294e-19
2.2630742162064e-19
1.7906305280529e-19
1.3081693880267e-19
8.8749063520981e-20
5.6125216543826e-20
3.317897376436e-20
1.8376276023762e-20
9.5538604405321e-21
4.6704857843181e-21
2.1500524690762e-21
9.3321936951519e-22
3.8229760413398e-22
1.4791803096946e-22
5.4080502691706e-23
1.8687084589035e-23
6.1023346309969e-24
1.8826923836449e-24
5.4850648304498e-25
1.5080599715009e-25
3.9096471171085e-26
9.5482070168059e-27
2.1942702370974e-27
4.7390782039456e-28
9.6053409634291e-29
1.8241011924404e-29
3.2398126604386e-30
5.3709426114358e-31
8.2920594299473e-32
1.1892155233356e-32
1.579849000331e-33
1.9379391348377e-34
2.1870472671604e-35
2.2613323027084e-36
2.1319208316579e-37
1.8223747733549e-38
1.4030597961924e-39
9.6520735406882e-41
5.8754718711662e-42
3.1266632926317e-43
1.4322733005961e-44
5.5341014251851e-46
1.754001024608e-47
4.37883990877e-49
8.0744648895133e-51
9.7778438243199e-53
5.8332079645613e-55
2.9136304382077e-61
1.0948749856964e-62
3.6387078993444e-64
1.0581904740542e-65
2.6579147552652e-67
5.6720001916317e-69
1.0066244440061e-70
1.4432826360299e-72
1.603588300407e-74
1.2932646804165e-76
6.7237439213728e-79
1.6888177721936e-81
0
0
0
0
0
0
0
0
0
0
0
0
0
1.1862627561032e-40
1.1526972129925e-28
-1.0160631859941e-26
-2.9179429398439e-25
-3.7506159905369e-24
-3.1015279729173e-23
-1.8827031690637e-22
-8.9847386710923e-22
-3.5136611480811e-21
-1.1572319504437e-20
-3.2719911570162e-20
-8.0546462451629e-20
-1.7448251655269e-19
-3.3535371983257e-19
-5.7559274693994e-19
-8.8691857587448e-19
-1.232436237559e-18
-1.5502704174516e-18
-1.7696193461482e-18
-1.8317098568667e-18
-1.7058902038865e-18
-1.3972231455632e-18
-9.4795538760884e-19
-4.3314853027093e-19
5.4242294576717e-20
4.2995122456994e-19
6.4608456702604e-19
7.0367276834284e-19
6.4291935333894e-19
5.1937928886301e-19
3.8144878816881e-19
2.5924210355336e-19
1.6495048006074e-19
9.894066925233e-20
5.6116512691373e-20
3.0106226525496e-20
1.5262545057178e-20
7.3017517759486e-21
3.2932825913477e-21
1.3997343835195e-21
5.6065888407932e-22
2.1170510844324e-22
7.5390145143056e-23
2.5326493769733e-23
8.0269774323352e-24
2.3998291284643e-24
6.7653526246705e-25
1.7972831984213e-25
4.4957783450381e-26
1.0578394718548e-26
2.3385401405802e-27
4.8504434017506e-28
9.4242005709347e-29
1.7122093624448e-29
2.9029674386781e-30
4.5826440570507e-31
6.7185377689884e-32
9.1217540538493e-33
1.1432192256685e-33
1.3177816022845e-34
1.3912593832914e-35
1.3388483885329e-36
1.1678058091076e-37
9.1714409067636e-39
6.4338043842654e-40
3.9924203271223e-41
2.1651417200627e-42
1.010457323843e-43
3.9767613720037e-45
1.2838875405406e-46
3.2702357265901e-48
6.2343848251044e-50
8.8561493499407e-52
1.8632735128341e-53
1.4020742448762e-54
1.3046902299349e-55
1.1301983622299e-56
9.0906849892514e-58
6.7699702416427e-59
4.6529423728817e-60
2.9406626117595e-61
1.7019869226401e-62
8.9789915167657e-64
4.2946014986131e-65
1.8506855024643e-66
7.1331275009388e-68
2.4377606372475e-69
7.3098871151499e-71
1.898591891022e-72
4.2022252890942e-74
7.7596060113016e-76
1.1614319145176e-77
1.3517689520556e-79
1.1460415140184e-81
6.2859626594209e-84
1.6714343313116e-86
0
0
0
0
1.7656738483997e-39
5.2999038625413e-28
-2.768662598404e-26
-8.4653136239344e-25
-1.0922477013718e-23
-8.9679243093022e-23
-5.3858648569686e-22
-2.5390799833162e-21
-9.7986785161133e-21
-3.1808154972098e-20
-8.8501584948472e-20
-2.1396994959722e-19
-4.5428602940311e-19
-8.5434372145562e-19
-1.4341558540055e-18
-2.1654753330381e-18
-2.9658881811493e-18
-3.717978176925e-18
-4.3004974410347e-18
-4.6075135666697e-18
-4.5451419943592e-18
-4.0317341480259e-18
-3.0451683149734e-18
-1.7052546801085e-18
-2.9718163606574e-19
8.3541100674327e-19
1.4658161648978e-18
1.5852017219942e-18
1.358808719539e-18
9.9820459254808e-19
6.5678235673544e-19
4.0017266554847e-19
2.3167012027682e-19
1.2941469877942e-19
7.0003723393273e-20
3.6470329304233e-20
1.8140336800925e-20
8.54861992574e-21
3.7978826856758e-21
1.5869180058304e-21
6.2325753612506e-22
2.3015064225653e-22
7.9956765443236e-23
2.6147974112218e-23
8.0518547921897e-24
2.3346934360766e-24
6.3724662020557e-25
1.6363484313045e-25
3.9497833925196e-26
8.9523859421953e-27
1.9028917689566e-27
3.7874132975646e-28
7.0463829594008e-29
1.22297893558e-29
1.9756983109583e-30
2.963237681538e-31
4.1144639664399e-32
5.2717991215288e-33
6.2103199903286e-34
6.69828016288e-35
6.582836300797e-36
5.8616602629361e-37
4.6978560461576e-38
3.3619366066216e-39
2.1275074712156e-40
1.1762522711864e-41
5.595159907072e-43
2.2445937147506e-44
7.397911568621e-46
1.9427566585492e-47
4.086231392174e-49
9.7566896047763e-51
5.9763682720976e-52
5.8466510727834e-53
5.6059603501852e-54
5.00891371988e-55
4.1605515918345e-56
3.2041952491802e-57
2.2811883988384e-58
1.4963610537681e-59
9.009964668846e-61
4.958911856101e-62
2.4827710714155e-63
1.1245425304377e-64
4.5785391548154e-66
1.6631787365802e-67
5.3426488935463e-69
1.5015350125738e-70
3.6439273602921e-72
7.5106251379156e-74
1.2868271747888e-75
1.7801224834652e-77
1.9066787112298e-79
1.4807156007306e-81
7.4016715210611e-84
1.7836608354929e-86
0
0
0
0
1.2926580087132e-38
1.8224090400009e-27
-5.5764542088333e-26
-1.8948349443681e-24
-2.4720599556075e-23
-2.0202954821132e-22
-1.2013486214359e-21
-5.5939238395277e-21
-2.129217647549e-20
-6.8104730624283e-20
-1.8653830986785e-19
-4.4342986079277e-19
-9.2449127197033e-19
-1.7053924093724e-18
-2.8053431135987e-18
-4.1464614041826e-18
-5.54339064807e-18
-6.7014240936666e-18
-7.1858078234717e-18
-6.5184283895847e-18
-4.6541704993205e-18
-2.4571625542209e-18
-1.0593118953466e-18
-5.30478975099e-19
2.9342999787034e-20
1.0678787059571e-18
2.0748700721326e-18
2.4284449661022e-18
2.0914598832094e-18
1.4506995787995e-18
8.6467184277799e-19
4.7013142242124e-19
2.4626908026235e-19
1.2870241332629e-19
6.7339899540146e-20
3.4612593289971e-20
1.7090780115218e-20
7.9844167068885e-21
3.5029266988517e-21
1.4395850721445e-21
5.5417878498334e-22
2.0001969792589e-22
6.7760702916607e-23
2.1564455868603e-23
6.4500615375685e-24
1.8133804779774e-24
4.7905877735734e-25
1.1884989008828e-25
2.7664989329835e-26
6.0350489701658e-27
1.2320673522055e-27
2.3499735748561e-28
4.1794684859383e-29
6.9157779189015e-30
1.0620009762994e-30
1.5091488039925e-31
1.9781573102103e-32
2.3829868841364e-33
2.6272374891877e-34
2.6381607737558e-35
2.3993160621639e-36
1.9632513275126e-37
1.4338796837088e-38
9.2574508479728e-40
5.2203362236005e-41
2.532607446443e-42
1.0371276872889e-43
3.5080118143156e-45
9.7451462790536e-47
2.567592841539e-48
1.1774719626179e-49
1.0833462251472e-50
1.1248114565275e-51
1.1054032300908e-52
1.0126014988784e-53
8.6262632490149e-55
6.8163004715552e-56
4.9815159025655e-57
3.3562531908958e-58
2.0770411542524e-59
1.1758191506766e-60
6.0603683819432e-62
2.8286283263481e-63
1.188102751881e-64
4.4581026514061e-66
1.4814440064405e-67
4.3142123275421e-69
1.0869050121507e-70
2.3306891637106e-72
4.1646045340484e-74
6.0249716902124e-76
6.7703461709489e-78
5.5361556897457e-80
2.9260281792667e-82
7.4913755090706e-85
0
0
0
0
0
6.2072622764773e-38
4.9872622828644e-27
-8.1129797911014e-26
-3.3651626944732e-24
-4.4939771782373e-23
-3.6710930653753e-22
-2.1651708688111e-21
-9.9649671601304e-21
-3.7443564431875e-20
-1.1827577056048e-19
-3.2104003087384e-19
-7.6239189922311e-19
-1.6062927770652e-18
-3.0256145656371e-18
-5.0963307216051e-18
-7.6313922565728e-18
-1.0042058392354e-17
-1.1320833945736e-17
-1.0478731325141e-17
-7.7026952932474e-18
-3.1950274709705e-18
3.0410934862732e-18
1.1116535069552e-17
9.781585458002e-18
5.497636822819e-19
-2.6063050155093e-18
-1.1545711344096e-19
2.2726271543044e-18
2.5032323038822e-18
1.6343296555296e-18
8.3418889541346e-19
3.9340889642249e-19
1.9142617476413e-19
9.8716675323569e-20
5.2204202783016e-20
2.7096117575789e-20
1.3389484047111e-20
6.2050920697403e-21
2.683032796871e-21
1.0819401252937e-21
4.0742471800408e-22
1.435128485202e-22
4.7355607454428e-23
1.4653179213872e-23
4.2540000062045e-24
1.1587559271e-24
2.9604964325588e-25
7.089476454247e-26
1.5896631123019e-26
3.3332985598856e-27
6.5257837807906e-28
1.190595912627e-28
2.0198646049338e-29
3.1784982973521e-30
4.6262772842905e-31
6.2080499049436e-32
7.652565622668e-33
8.6293030696506e-34
8.8587573429638e-35
8.2331074365468e-36
6.8813572251493e-37
5.1317056182172e-38
3.3817714993823e-39
1.9461404726591e-40
9.6386386541544e-42
4.039751384917e-43
1.4167587519687e-44
4.3591072518246e-46
1.6259628913866e-47
1.1965665529742e-48
1.2728071911336e-49
1.3626203491662e-50
1.36910285449e-51
1.2822744456288e-52
1.1168925082296e-53
9.0243391169997e-55
6.7445172943426e-56
4.6475560608867e-57
2.9421653576445e-58
1.7041192261137e-59
8.9886735243656e-61
4.2946104976592e-62
1.847064523421e-63
7.0990768229032e-65
2.4172354258515e-66
7.2158827920499e-68
1.8643166688305e-69
4.1015787571283e-71
7.5229619451875e-73
1.117733214433e-74
1.2905955078851e-76
1.0849739937291e-78
5.8988196744813e-81
1.5544604181321e-83
0
0
0
0
0
0
2.1994444956879e-37
1.128560210555e-26
-7.0088866957792e-26
-4.7623107479552e-24
-6.6609523801344e-23
-5.4794574417345e-22
-3.2164109412776e-21
-1.4662791930118e-20
-5.4541770567057e-20
-1.710168202439e-19
-4.6640241623558e-19
-1.1411204952039e-18
-2.5449926029059e-18
-5.12619540935e-18
-9.0963138154859e-18
-1.3848085901002e-17
-1.7770869113787e-17
-1.7586068337177e-17
-1.4359447707966e-17
-1.1975122310522e-17
-2.7627490960714e-18
-2.1584917584388e-17
-2.2551405187698e-17
1.1102230246252e-16
0.0025672498597011
-7.4593109467003e-17
1.4038542045409e-17
8.5329181369025e-18
1.6496224324004e-18
9.5321378189738e-19
4.6013976592197e-19
2.2074065436536e-19
1.144842722908e-19
6.2923046731288e-20
3.4619641481252e-20
1.8232789636595e-20
8.9844197884105e-21
4.1103207090496e-21
1.7447163994456e-21
6.8839973066495e-22
2.5308100248066e-22
8.6878284417961e-23
2.7892833782568e-23
8.3837501089243e-24
2.3601409072586e-24
6.2225748041469e-25
1.5358004505302e-25
3.5454837087464e-26
7.6470110712214e-27
1.5386638580221e-27
2.8830577437674e-28
5.0199777904248e-29
8.1026208017126e-30
1.2089475805087e-30
1.6621202214117e-31
2.0980380233767e-32
2.4213423879953e-33
2.5427883250261e-34
2.4162929749501e-35
2.0640084756345e-36
1.5724370921504e-37
1.0582693428117e-38
6.2195886451182e-40
3.149177663136e-41
1.356779296348e-42
5.0184708177444e-44
1.8166266737895e-45
9.8865660196125e-47
9.5183576681539e-48
1.0799225529208e-48
1.1838741503942e-49
1.214593141584e-50
1.161422803817e-51
1.0327459747095e-52
8.5179651676371e-54
6.4980393263349e-55
4.5703206608266e-56
2.9530161054962e-57
1.7456925802334e-58
9.3978951877975e-60
4.582784311912e-61
2.0117151162505e-62
7.8918193405793e-64
2.742838081202e-65
8.3578341429276e-67
2.2042704261087e-68
4.9505610324716e-70
9.2696997893929e-72
1.4060488776533e-73
1.6574706659666e-75
1.4225669693425e-77
7.8962183477645e-80
2.1244292381139e-82
0
0
0
0
0
0
0
6.1341441968037e-37
2.1658753629673e-26
2.4582627796631e-26
-5.1996310877245e-24
-8.01528506158e-23
-6.7367530900523e-22
-3.9624188408924e-21
-1.7974642061319e-20
-6.6557962119082e-20
-2.0892086263748e-19
-5.8330042235446e-19
-1.5183051643751e-18
-3.6850554088277e-18
-7.9650815197359e-18
-1.45189514925e-17
-2.1493191337775e-17
-2.5120992079909e-17
-2.0564256732737e-17
-1.4089639575824e-17
-4.6785234805796e-17
-1.2316536679435e-16
0.21052367679923
0.7136954589902
0.96633498367053
0.97021416846136
0.74154685389101
0.29481213092715
6.1485448019809e-19
5.3937080751953e-19
3.2744172853797e-19
1.7855763681578e-19
1.0099274309714e-19
6.0041409578265e-20
3.5738732036154e-20
2.0312437158271e-20
1.0737564425269e-20
5.2334521677493e-21
2.3516035109592e-21
9.7688440101192e-22
3.7640443615921e-22
1.3491839332787e-22
4.5089678665804e-23
1.4071555762449e-23
4.1043375079414e-24
1.1191967065268e-24
2.8526516238655e-25
6.7921365144813e-26
1.5092224532041e-26
3.1254248437163e-27
6.0220265247039e-28
1.0773878648475e-28
1.7855081163652e-29
2.7334824350888e-30
3.8536009347793e-31
4.9848198257623e-32
5.8921270720189e-33
6.3338134246079e-34
6.1576629724971e-35
5.3787139307937e-36
4.1885249403966e-37
2.8807116864446e-38
1.7306393192696e-39
8.9773718349708e-41
4.0028265105328e-42
1.6001471598381e-43
7.1975770623225e-45
5.3966209337251e-46
6.0047110466035e-47
7.0766128601989e-48
7.9259353241409e-49
8.2974439012895e-50
8.0945311313552e-51
7.3418907543766e-52
6.1758113490783e-53
4.8041884348038e-54
3.4451200222041e-55
2.2692803889968e-56
1.3674239586018e-57
7.5029269413723e-59
3.7286231329717e-60
1.6678642986443e-61
6.6665931419859e-63
2.3605726141023e-64
7.3275460827757e-66
1.9684889701717e-67
4.5027615941685e-69
8.5861062127546e-71
1.3261191955353e-72
1.5915523402727e-74
1.3905263565152e-76
7.8559054200931e-79
2.1509846035904e-81
0
0
0
0
0
0
0
0
1.4026235977583e-36
3.5873274841883e-26
2.395041369523e-25
-3.7705219192911e-24
-7.5210778015106e-23
-6.6824823958619e-22
-3.9968128128338e-21
-1.8219052071075e-20
-6.7879322153522e-20
-2.1622382052715e-19
-6.3143709545878e-19
-1.7843888742574e-18
-4.6914995619704e-18
-1.0582660993776e-17
-1.9065296656443e-17
-2.619952011609e-17
-2.7449586695783e-17
-2.7165616369844e-17
-3.4575036544254e-16
5.8980598183211e-17
0.38196044792703
0.99197985631826
0.99999999999986
0.99999999999977
0.99999999999977
0.99999999999983
0.99924127852706
0.50419053816474
1.0086491238335e-19
8.4121319107318e-20
6.1454091409279e-20
4.3474705641772e-20
2.9329394846168e-20
1.8424377637137e-20
1.0603314284855e-20
5.5622777299598e-21
2.6660936949011e-21
1.1731799174903e-21
4.761727697765e-22
1.7898244242427e-22
6.2495311909789e-23
2.0315545205427e-23
6.1567711233813e-24
1.740693172635e-24
4.5918838934533e-25
1.1298110617871e-25
2.590775412709e-26
5.5303721761848e-27
1.0972516862999e-27
2.0195264076541e-28
3.4402109640972e-29
5.4093595150049e-30
7.8268293250798e-31
1.0383890146818e-31
1.2580342626882e-32
1.3852538339036e-33
1.3787176320387e-34
1.2322804361926e-35
9.8149393878075e-37
6.9034621353102e-38
4.2446813872008e-39
2.2625374734748e-40
1.0541832382783e-41
4.6921856839358e-43
2.69508266331e-44
2.5546440960189e-45
3.0875108089916e-46
3.742598618408e-47
4.2788304204717e-48
4.5691728565874e-49
4.5457266129985e-50
4.2038068144614e-51
3.6046384931259e-52
2.8578180387641e-53
2.0882553496667e-54
1.4013718259176e-55
8.6015866173855e-57
4.8066537119998e-58
2.4323482005989e-59
1.107726968141e-60
4.5071384860605e-62
1.6243112735189e-63
5.1309108599893e-65
1.4024270017564e-66
3.2633411143276e-68
6.3290393723211e-70
9.9403240225757e-72
1.2129162561584e-73
1.0771973477035e-75
6.1849405146596e-78
1.7207894665331e-80
0
0
0
0
0
0
0
0
0
2.7045085191719e-36
5.1906196433183e-26
5.7046527213487e-25
-1.0518814199394e-25
-4.6503279236888e-23
-4.9239544436459e-22
-3.1224961739484e-21
-1.4667241122051e-20
-5.6330907837819e-20
-1.8684262112959e-19
-5.8659498830827e-19
-1.8162398789595e-18
-5.0714350459777e-18
-1.1592834132281e-17
-2.050562739149e-17
-2.6875018228087e-17
-2.5011123685485e-17
-4.3117927750968e-17
-1.38198673812e-16
0.2269376930252
0.99545894366433
0.99999999999982
0.99999999999968
0.9999999999996
0.99999999999959
0.99999999999967
0.99999999999982
0.99819560885412
0.32590679542362
1.6440641269094e-20
2.0544660387759e-20
1.8158818697421e-20
1.3328896486509e-20
8.5793779392073e-21
4.9246878378354e-21
2.5462720196168e-21
1.1966988184643e-21
5.1496153201034e-22
2.0404624386485e-22
7.4765033276957e-23
2.54104159499e-23
8.026949691482e-24
2.3595723353333e-24
6.4577992027369e-25
1.6454538468113e-25
3.9012851833133e-26
8.5986365988782e-27
1.7593361973819e-27
3.3356969076825e-28
5.8477596963469e-29
9.4542559618661e-30
1.4053478626035e-30
1.9139852989846e-31
2.3786864263609e-32
2.6850153226781e-33
2.7377608325951e-34
2.5055172280377e-35
2.0425782828722e-36
1.4705714414622e-37
9.2688699953587e-39
5.0977282324527e-40
2.5139560948042e-41
1.2838495285743e-42
9.357177149411e-44
1.0410722704673e-44
1.3265167812837e-45
1.6472207960044e-46
1.9216742632727e-47
2.0929073226102e-48
2.1230447734522e-49
2.0013948968044e-50
1.7489657227022e-51
1.4128080410747e-52
1.0516332232047e-53
7.1874108599474e-55
4.4920546232811e-56
2.555452658241e-57
1.3162007467328e-58
6.0997839085899e-60
2.5251223802625e-61
9.2568870273899e-63
2.9738424931618e-64
8.2650169824194e-66
1.9551323114928e-67
3.8539798998154e-69
6.1508541347892e-71
7.6248683798788e-73
6.8780757932902e-75
4.0103773428667e-77
1.1328593825998e-79
0
0
0
0
0
0
0
0
0
0
4.4886956786445e-36
6.6152179405936e-26
9.5746041197043e-25
5.2502710788915e-24
2.030040752572e-24
-1.7180296583575e-22
-1.4869669957075e-21
-8.0250925871957e-21
-3.4529251625438e-20
-1.2787331810419e-19
-4.5540099128279e-19
-1.5651354094067e-18
-4.5666105530327e-18
-1.0362706200096e-17
-1.8187689077669e-17
-2.3591160309995e-17
-6.986214209512e-17
-1.2498934907996e-16
1.5265566588596e-16
0.72942069407035
0.99999999999988
0.99999999999972
0.99999999999958
0.9999999999995
0.99999999999949
0.99999999999958
0.99999999999973
0.99999999999991
0.80678548183026
4.5681873295665e-21
7.537932606849e-21
7.3560472724132e-21
5.5803518335741e-21
3.6008567825119e-21
2.0422277047561e-21
1.0369201548712e-21
4.7708303901633e-22
2.005892701154e-22
7.7537142115574e-23
2.7673113915585e-23
9.1456766808741e-24
2.8040430872005e-24
7.9837140956417e-25
2.1116730039144e-25
5.1874564358237e-26
1.1827009860792e-26
2.4996114676338e-27
4.8892090640204e-28
8.8323621609089e-29
1.469951951127e-29
2.2471852186782e-30
3.1448157626233e-31
4.0127800800557e-32
4.6471128672066e-33
4.8581180392646e-34
4.5557718899427e-35
3.8044699472273e-36
2.8066961037142e-37
1.8171609127627e-38
1.0368614572582e-39
5.4969741618284e-41
3.2976172039533e-42
2.9600533739809e-43
3.6704602395267e-44
4.8591852673649e-45
6.1703446541671e-46
7.344707565146e-47
8.1582908050859e-48
8.437964378949e-49
8.1081293023402e-50
7.2204309534805e-51
5.9422053250326e-52
4.5050940416143e-53
3.1353258747363e-54
1.9949141063389e-55
1.1550918426071e-56
6.0540026677134e-58
2.8543698758023e-59
1.2018707768858e-60
4.4804765416865e-62
1.4634066400987e-63
4.1341053164567e-65
9.9381622997051e-67
1.9903576686325e-68
3.226611604391e-70
4.0619073689304e-72
3.7200510417306e-74
2.201683092614e-76
6.3117588400054e-79
0
0
0
0
0
0
0
0
0
0
0
6.5138646281869e-36
7.4620075571007e-26
1.3003182815914e-24
1.0935471920436e-23
5.7896527682234e-23
2.0883072084986e-22
4.6500490275204e-22
-1.5132546609229e-22
-8.7168559762681e-21
-5.6433422372665e-20
-2.7596490657281e-19
-1.1090548577509e-18
-3.3811244498833e-18
-7.5315203253088e-18
-1.3107911919158e-17
-1.695441870154e-17
-8.1024844194771e-17
-1.0429481766994e-16
-1.1102230246252e-16
0.96600621178061
0.99999999999983
0.99999999999969
0.99999999999957
0.99999999999949
0.99999999999949
0.99999999999957
0.99999999999971
0.99999999999988
0.96501413632838
1.5547511978739e-21
2.7920704004506e-21
2.8063269820184e-21
2.1368682287305e-21
1.3640774875013e-21
7.6054220660008e-22
3.7838251502516e-22
1.7023013034653e-22
6.9870331305088e-23
2.632361525017e-23
9.1410143464481e-24
2.9337496704828e-24
8.7167537829665e-25
2.399689860201e-25
6.1220518301783e-26
1.4467735461166e-26
3.1641516540555e-27
6.3950687816045e-28
1.1921697664026e-28
2.0450734572335e-29
3.2190373877414e-30
4.6338283528694e-31
6.0765703222597e-32
7.2261921584435e-33
7.7516214068875e-34
7.4547887716413e-35
6.3828364232282e-36
4.8313859616143e-37
3.2216148375609e-38
1.920507673377e-39
1.1135425143707e-40
7.9413074796753e-42
8.4459075435908e-43
1.1295509161321e-43
1.5422238350792e-44
2.0010933889554e-45
2.4304795758941e-46
2.7536397737963e-47
2.9040357255668e-48
2.8445420190388e-49
2.5814164651477e-50
2.1643425237334e-51
1.6712810263999e-52
1.1843575026468e-53
7.6712991532255e-55
4.5206230662422e-56
2.4107703578997e-57
1.1562473937599e-58
4.9513353007543e-60
1.876765425609e-61
6.2311629582827e-63
1.7889590433896e-64
4.3695343636793e-66
8.8892386055784e-68
1.463448573337e-69
1.8704699872133e-71
1.7388174112479e-73
1.0443471723432e-75
3.0376715762689e-78
0
0
0
0
0
0
0
0
0
0
0
0
8.3675006416631e-36
7.4608226581392e-26
1.5001534850896e-24
1.5347517905218e-23
1.0544962810088e-22
5.4345126341804e-22
2.1935762781716e-21
6.8002917387626e-21
1.4129490065928e-20
8.2098474013971e-21
-1.0017657873502e-19
-6.0767086344649e-19
-2.0114204955089e-18
-4.404228886089e-18
-7.4753576259431e-18
-9.3309289524189e-18
-4.3033369416658e-17
-2.6205292386416e-17
0.0036748427953173
0.96438991980379
0.99999999999985
0.99999999999973
0.99999999999962
0.99999999999957
0.99999999999958
0.99999999999965
0.99999999999977
0.99999999999991
0.8996834806099
5.4191961158387e-22
9.8830970125355e-22
9.9210183423199e-22
7.4644151841579e-22
4.6841416002724e-22
2.5598813183674e-22
1.2458440211569e-22
5.4739824610945e-23
2.1908224386548e-23
8.0344605189713e-24
2.7106104095779e-24
8.4341338976361e-25
2.4239476718268e-25
6.4387665106087e-26
1.5807616026266e-26
3.5845842327425e-27
7.4990225186974e-28
1.4448544057073e-28
2.5582348093581e-29
4.151259499119e-30
6.1537758362373e-31
8.3018817386488e-32
1.0147395282021e-32
1.1179633451546e-33
1.1035998555177e-34
9.6981202208218e-36