/*--------------------------------*- C++ -*----------------------------------*\
  =========                 |
  \\      /  F ield         | OpenFOAM: The Open Source CFD Toolbox
   \\    /   O peration     | Website:  https://openfoam.org
    \\  /    A nd           | Version:  7
     \\/     M anipulation  |
\*---------------------------------------------------------------------------*/
FoamFile
{
    version     2.0;
    format      ascii;
    class       volScalarField;
    location    "0.6";
    object      alpha.water;
}
// * * * * * * * * * * * * * * * * * * * * * * * * * * * * * * * * * * * * * //

dimensions      [0 0 0 0 0 0 0];

internalField   nonuniform List<scalar> 
6000
(
0
0
0
0
0
0
0
0
0
0
0
0
0
0
0
0
0
0
0
0
0
0
0
0
0
0
0
0
0
0
0
0
0
0
0
0
0
0
0
0
0
0
0
0
0
0
0
0
0
0
0
0
0
0
0
0
0
0
0
0
0
0
0
0
0
0
0
0
0
0
0
0
0
0
0
0
0
0
0
0
0
0
0
0
0
0
0
0
0
0
0
0
0
0
0
0
0
0
0
0
0
0
0
0
0
0
0
0
0
0
0
0
0
0
0
0
0
0
0
0
0
0
0
0
0
0
0
0
0
0
0
0
0
0
0
0
0
0
0
0
0
0
0
0
0
0
0
0
0
0
0
0
0
0
0
0
0
0
0
0
0
0
0
0
0
0
0
0
0
0
0
0
0
0
0
0
0
0
0
0
0
0
0
0
0
0
0
0
0
0
0
0
0
0
0
0
0
0
0
0
0
0
0
0
0
0
0
0
0
0
0
0
0
0
0
0
0
0
0
0
0
0
0
0
0
0
0
0
0
0
0
0
0
0
0
0
0
0
0
0
0
0
0
0
0
0
0
0
0
0
0
0
0
0
0
0
0
0
0
0
0
0
0
0
0
0
0
0
0
0
0
0
0
0
0
0
0
0
0
0
0
0
0
0
0
0
0
0
0
0
0
0
0
0
0
0
0
0
0
0
0
0
0
0
0
0
0
0
0
0
0
0
0
0
0
0
0
0
0
0
0
0
0
0
0
0
0
0
0
0
0
0
0
0
0
0
0
0
0
0
0
0
0
0
0
0
0
0
0
0
0
0
0
0
0
0
0
0
0
0
0
0
0
0
0
0
0
0
0
0
0
0
0
0
0
0
0
0
0
0
0
0
0
0
0
0
0
0
0
0
0
0
0
0
0
0
0
0
0
0
0
0
0
0
0
0
0
0
0
7.0477378327921e-36
1.3748467580049e-34
1.313412087076e-33
8.1862801595793e-33
3.7424993099506e-32
1.3377533448595e-31
3.8922343330872e-31
9.4759428347427e-31
1.9695752287331e-30
3.5487135868195e-30
5.6092261245866e-30
7.8528903564351e-30
9.8142055689203e-30
1.1020686612559e-29
1.1180739066522e-29
1.0295904613051e-29
8.6402259725642e-30
6.6305389311617e-30
4.6669500190198e-30
3.0206925594282e-30
1.8019892359575e-30
9.9272008170669e-31
5.0591183616154e-31
2.3885816063847e-31
1.0461039590122e-31
4.2544806797756e-32
1.6082099509955e-32
5.6542448165407e-33
1.8500351430967e-33
5.6353951839699e-34
1.5984592857243e-34
4.2221539466457e-35
1.0384177553701e-35
2.3773483977314e-36
5.0640600869186e-37
1.0030348850015e-37
1.8458272852349e-38
3.1527378055326e-39
4.9921005903027e-40
7.3174816033152e-41
9.9130452012367e-42
1.2387827187855e-42
1.4248900805241e-43
1.5048314273033e-44
1.4550792775582e-45
1.2840430343423e-46
1.0303227533338e-47
7.48597141408e-49
4.9013813507269e-50
2.875945224423e-51
1.5026017400415e-52
6.9380477862991e-54
2.8059514678381e-55
9.8332913646312e-57
2.9468489453085e-58
7.4275679915753e-60
1.5410341130292e-61
2.5562371168974e-63
3.2512848424631e-65
2.9697760153883e-67
1.7301068276482e-69
4.818117029313e-72
0
0
0
0
0
0
0
0
0
0
0
0
0
0
0
0
0
0
0
0
0
0
0
0
0
0
0
0
0
0
0
0
0
0
0
0
-6.5152605102308e-26
-9.5581171470313e-25
-6.6538335720184e-24
-2.8601926542206e-23
-8.0453814650168e-23
-1.2893561872019e-22
4.398116183459e-23
1.0507552665336e-21
4.0060082832356e-21
1.0240915361623e-20
2.0508949809651e-20
3.4072984639822e-20
4.8445880799361e-20
6.0249909743653e-20
6.6761448473085e-20
6.7075915991285e-20
6.2147270710454e-20
5.3898481494893e-20
4.4215245749973e-20
3.4444790181431e-20
2.5418175028616e-20
1.7649181279656e-20
1.1439541114887e-20
6.8725831179254e-21
3.8066756449068e-21
1.9370351039898e-21
9.0352920058341e-22
3.8583860985995e-22
1.5073133316819e-22
5.3841216991465e-23
1.757650897001e-23
5.2408352148611e-24
1.4261563867044e-24
3.537938084556e-25
7.9892317889594e-26
1.6390539104983e-26
3.047533217016e-27
5.1195834235111e-28
7.7409407494005e-29
1.048521007629e-29
1.2648906677656e-30
1.349206184504e-31
1.2610043767756e-32
1.0208659440592e-33
7.0527661399729e-35
4.076309796583e-36
1.9176094227e-37
7.0531486412561e-39
1.9026209617789e-40
3.3476015529444e-42
2.882588204775e-44
3.3826241253403e-51
1.5964649568534e-52
6.5964815769516e-54
2.3607360213263e-55
7.2216562317158e-57
1.8572804721321e-58
3.930280130225e-60
6.6470330481922e-62
8.6166494421757e-64
8.0188283705201e-66
4.7579142289582e-68
1.3490727682076e-70
0
0
0
0
0
0
0
0
0
0
0
0
0
0
0
0
0
0
0
0
0
0
0
0
0
0
0
0
0
0
0
0
0
0
0
0
-2.8902212749744e-24
-4.8621792415141e-23
-3.9772008141594e-22
-2.1060188362165e-21
-8.1109784856682e-21
-2.4204613882213e-20
-5.8208079104336e-20
-1.1577221028713e-19
-1.9378886871111e-19
-2.759245606484e-19
-3.3517098887785e-19
-3.4365722623923e-19
-2.843750974945e-19
-1.5864223958445e-19
1.310587276825e-20
1.9636689021662e-19
3.5211405464431e-19
4.4886433493613e-19
4.730135576983e-19
4.322070823147e-19
3.4975969313162e-19
2.5358276579541e-19
1.6593528067646e-19
9.8520994066812e-20
5.3295241527847e-20
2.6356094348551e-20
1.1948088880035e-20
4.9759053098915e-21
1.9065998861747e-21
6.7270269604349e-22
2.1858164074871e-22
6.5368161131965e-23
1.7968484131397e-23
4.5310427643074e-24
1.0454957399148e-24
2.2006523904359e-25
4.2105437527301e-26
7.2931237814387e-27
1.1382998573899e-27
1.5923356334784e-28
1.9838475814418e-29
2.1847163716124e-30
2.1070395850771e-31
1.7591224067979e-32
1.2524794861733e-33
7.455420956701e-35
3.6097462564833e-36
1.3656582187226e-37
3.7870402291505e-39
6.8458970782934e-41
6.0534287379568e-43
3.7191579148333e-50
1.7951219549685e-51
7.5819019729796e-53
2.7723054480026e-54
8.6609077874879e-56
2.2737892165739e-57
4.9097921053885e-59
8.4695890649989e-61
1.1194446824783e-62
1.0618075390339e-64
6.419015530828e-67
1.8537705270281e-69
0
0
0
0
0
0
0
0
0
0
0
0
0
0
0
0
0
0
0
0
0
0
0
0
0
0
0
0
0
0
0
0
0
0
0
0
9.5950115910235e-26
-2.2407773786452e-23
-3.7891443922701e-22
-3.0443663812993e-21
-1.587497077106e-20
-6.0726141918008e-20
-1.8148484287238e-19
-4.3967517928541e-19
-8.8563425277736e-19
-1.5119661614553e-18
-2.2152952046998e-18
-2.7932602909203e-18
-2.9994171391243e-18
-2.6598242568303e-18
-1.7911352710285e-18
-6.1730189377489e-19
5.4200307196466e-19
1.4186312146538e-18
1.8786275751414e-18
1.9268880513684e-18
1.6701866026231e-18
1.2622884028977e-18
8.4488082253384e-19
5.0633549412344e-19
2.7437071096619e-19
1.3565243794505e-19
6.1658431645375e-20
2.5897355328073e-20
1.0074088625513e-20
3.62894592634e-21
1.2085707583569e-21
3.7130032311427e-22
1.0499224580265e-22
2.7263381721695e-23
6.4849322089017e-24
1.408753036133e-24
2.7847486947541e-25
4.9874049627687e-26
8.0522291193997e-27
1.1652256028375e-27
1.501335554045e-28
1.7089839583978e-29
1.7025830823536e-30
1.4672804627294e-31
1.0775753608896e-32
6.6113518213888e-34
3.2970647196428e-35
1.2839029632186e-36
3.6622900734064e-38
6.805881274381e-40
6.1831428737531e-42
2.6611373839922e-49
1.3143347483142e-50
5.6774830100964e-52
2.1221242847909e-53
6.7739341992388e-55
1.8162694377987e-56
4.0036768940194e-58
7.047675230347e-60
9.5017516825793e-62
9.1896933897717e-64
5.6626226827793e-66
1.6662253216621e-68
0
0
0
0
0
0
0
0
0
0
0
0
0
0
0
0
0
0
0
0
0
0
0
0
0
0
0
0
0
0
0
0
0
0
0
0
0
8.6261466597299e-25
-8.3508034314525e-23
-1.4377470620035e-21
-1.1394497644617e-20
-5.8513495036686e-20
-2.2112377811066e-19
-6.5345203471372e-19
-1.5586105542434e-18
-3.0615899183625e-18
-5.0237218096594e-18
-6.9260172344981e-18
-7.9622446058954e-18
-7.5123281535233e-18
-5.7913759838041e-18
-3.7570921327342e-18
-2.2303016167277e-18
-1.3460046164826e-18
-7.9129806933056e-19
-2.8301158913539e-19
2.1869098362241e-19
5.9264382027664e-19
7.3603431592977e-19
6.6404808756197e-19
4.8070574727622e-19
2.9226347379826e-19
1.5378976619895e-19
7.1651306977156e-20
3.0063016138422e-20
1.148654795868e-20
4.0199158823471e-21
1.291046934723e-21
3.8040524219706e-22
1.0270726997807e-22
2.5366332489579e-23
5.7174113796385e-24
1.1722867742897e-24
2.1774318993437e-25
3.6451450293047e-26
5.4671743157086e-27
7.2967000993391e-28
8.5973004046096e-29
8.8583355026886e-30
7.8887396111194e-31
5.9817122097918e-32
3.7861285933268e-33
1.9463471278025e-34
7.8071503026727e-36
2.292342894763e-37
4.3822132441859e-39
4.0929083674739e-41
1.3930502972846e-48
7.0446171763723e-50
3.1140327347625e-51
1.1905006889613e-52
3.8848759746067e-54
1.0643623278554e-55
2.3963303262074e-57
4.3065289278439e-59
5.9252209703366e-61
5.8459517226629e-63
3.6733162313157e-65
1.1017136512458e-67
0
0
0
0
0
0
0
0
0
0
0
0
0
0
0
0
0
0
0
0
0
0
0
0
0
0
0
0
0
0
0
0
0
0
0
0
0
9.3992144009436e-36
3.9327685356612e-24
-1.9515872930356e-22
-3.4946588231259e-21
-2.744423761971e-20
-1.3865481187194e-19
-5.1466728029656e-19
-1.488744577607e-18
-3.4461771867849e-18
-6.4866197651705e-18
-1.0055343013386e-17
-1.2807536368314e-17
-1.3822831536219e-17
-1.3727370924957e-17
-1.459151540999e-17
-1.6018922379255e-17
-1.1625639679387e-17
5.9634156683544e-19
1.5584658139346e-17
1.9186431148143e-17
1.3260128323805e-17
5.7426451604089e-18
1.6824065870501e-18
5.2327804797589e-19
3.1649231162049e-19
2.1728174857915e-19
1.2275008542734e-19
5.8233864126896e-20
2.4263255693935e-20
9.0909177217405e-21
3.0938109443449e-21
9.5987702894396e-22
2.7172589831844e-22
7.0149617596086e-23
1.6492474113348e-23
3.5222894688669e-24
6.8078196020103e-25
1.1849014324102e-25
1.8461075545546e-26
2.5570352394791e-27
3.1235673393377e-28
3.3332774257346e-29
3.0712476407626e-30
2.4071018828832e-31
1.5733430281526e-32
8.345117165907e-34
3.451023934881e-35
1.0440461694163e-36
2.0582254793369e-38
2.0399352067523e-40
9.9480616474979e-43
1.3763920402748e-43
1.7516462240192e-44
2.0457634783371e-45
2.1868866189674e-46
2.1332853859099e-47
1.8924382021059e-48
1.5206158335894e-49
1.1016758459059e-50
7.1584682211565e-52
4.1459902421338e-53
2.1247562352057e-54
9.5517917850807e-56
3.7272241353396e-57
1.2461745589375e-58
3.5120130809538e-60
8.1669710590618e-62
1.5223924564166e-63
2.1820380464757e-65
2.2524279199313e-67
1.4870610294769e-69
4.7046693947931e-72
0
0
0
0
0
0
0
0
0
0
0
0
0
0
0
0
0
0
0
0
0
0
0
0
0
0
0
0
9.4775987885175e-35
1.2035985291482e-23
-3.0897654555985e-22
-6.0207528489209e-21
-4.7256217130393e-20
-2.3496251513874e-19
-8.5310771780721e-19
-2.4009634823451e-18
-5.3623135703042e-18
-9.6465801983914e-18
-1.4090106866251e-17
-1.7672262880193e-17
-2.3407940575412e-17
-2.3631266489864e-17
-4.5200396207977e-17
-4.4860680150502e-17
-3.2959746043559e-17
0
0.00068205847684524
8.0881482067419e-17
-9.4612572035829e-18
-2.7494143435215e-18
3.7018933370253e-19
1.9934734271185e-19
1.9655636432851e-19
1.4211560863474e-19
7.8494223484211e-20
3.6406691595593e-20
1.4841689860222e-20
5.4215636174674e-21
1.7897114590572e-21
5.3575598750254e-22
1.455984940107e-22
3.5912263512056e-23
8.026487259701e-24
1.6204574861386e-24
2.9415380941209e-25
4.7731719377534e-26
6.8763705897443e-27
8.7250994348236e-28
9.6589141143116e-29
9.2209445019288e-30
7.4792809273535e-31
5.0539991031894e-32
2.7687200310071e-33
1.1816752018201e-34
3.6897671881045e-36
7.5680399415801e-38
9.0495359233554e-40
2.5969797960776e-41
3.7452982151813e-42
4.9719059886052e-43
6.0629520995419e-44
6.7755222184643e-45
6.9202590583139e-46
6.439877358401e-47
5.4408871734091e-48
4.1565699002654e-49
2.8578865871376e-50
1.7589491782013e-51
9.6300206862943e-53
4.6553684549365e-54
1.9697557223059e-55
7.2175380958236e-57
2.2605309593065e-58
5.9529052794932e-60
1.290191203835e-61
2.2355823711591e-63
2.9704903973695e-65
2.8349122579568e-67
1.7256957509951e-69
5.0205589213008e-72
0
0
0
0
0
0
0
0
0
0
0
0
0
0
0
0
0
0
0
0
0
0
0
0
0
0
0
0
4.6546912451393e-34
2.7596863384181e-23
-3.169340134027e-22
-7.5888495475493e-21
-6.0672246597017e-20
-2.983650231846e-19
-1.0618454722463e-18
-2.9244894477347e-18
-6.74204545474e-18
-1.3063784332043e-17
-1.9828945324226e-17
-2.2268174521515e-17
-3.1591096053613e-17
2.9201958646086e-17
1.0408340855861e-17
0.23109387134026
0.72505541085893
0.96567325185215
0.96664071591932
0.73819929012552
0.29243091732526
1.1404543101165e-19
8.1563451198311e-20
1.1817802203771e-19
1.1255555218836e-19
7.4763596847522e-20
3.9655381212447e-20
1.7955286387711e-20
7.1541031974019e-21
2.5450088257486e-21
8.1391077503336e-22
2.3477236728172e-22
6.1161755246764e-23
1.4384318061042e-23
3.0470056217706e-24
5.7898341943752e-25
9.814788605192e-26
1.4744250604073e-26
1.9475257701441e-27
2.2407651073682e-28
2.2200087087714e-29
1.8662229883044e-30
1.305389348464e-31
7.3950686599018e-33
3.2618729807639e-34
1.0546565944322e-35
2.3009254076128e-37
4.1296752633023e-39
3.0717561006585e-40
4.5914563939359e-41
6.3164562097864e-42
7.9818466062815e-43
9.2438894478621e-44
9.7857447771552e-45
9.4410332148478e-46
8.2725330855337e-47
6.5574482920507e-48
4.6809065661547e-49
2.9931639014935e-50
1.7039605733507e-51
8.5736045554951e-53
3.7799240338793e-54
1.4450095098655e-55
4.7284705381618e-57
1.3030340341562e-58
2.9604462061272e-60
5.3876902692843e-62
7.5345142213598e-64
7.5851551927162e-66
4.882620844716e-68
1.5061676763903e-70
0
0
0
0
0
0
0
0
0
0
0
0
0
0
0
0
0
0
0
0
0
0
0
0
0
0
0
0
0
1.4851325678817e-33
5.0139142713763e-23
-1.1741409158965e-22
-6.6878908845931e-21
-5.7359433357642e-20
-2.8375200081028e-19
-1.0042428202911e-18
-2.7772461270859e-18
-7.3193928553937e-18
-1.6374805966365e-17
-8.6843960912656e-17
-1.7528399231656e-16
-1.4396177158089e-16
-4.8572257327351e-17
0.41195893728075
0.99624283250048
0.9999999999997
0.9999999999995
0.99999999999946
0.99999999999958
0.99896981257769
0.49714830951941
3.6975279186485e-20
5.2333005214382e-20
4.6985795591612e-20
3.0672070873033e-20
1.6076052137036e-20
7.1690456428624e-21
2.7992896946264e-21
9.6968491071221e-22
3.0003160193364e-22
8.3245385294912e-23
2.0739145922189e-23
4.6342506292733e-24
9.2581341941661e-25
1.6454446698037e-25
2.5853793096016e-26
3.5640530957165e-27
4.2712970211273e-28
4.3999105358519e-29
3.8396099913574e-30
2.7842080815857e-31
1.6333581312063e-32
7.4599613995034e-34
2.5123792822871e-35
6.0798347547255e-37
1.905469480103e-38
2.2548142555085e-39
3.4851988334475e-40
4.9556351205701e-41
6.4699653672241e-42
7.7388517091659e-43
8.4589032607718e-44
8.4243500024305e-45
7.6185439606978e-46
6.2319627853566e-47
4.5902341683286e-48
3.0284849199441e-49
1.7788304932249e-50
9.2346701741953e-52
4.2008477070813e-53
1.6570692600311e-54
5.5953912596859e-56
1.5912137775086e-57
3.7308788984541e-59
7.0072365270671e-61
1.011314458302e-62
1.0506703230825e-64
6.9791791081569e-67
2.2215973226756e-69
0
0
0
0
0
0
0
0
0
0
0
0
0
0
0
0
0
0
0
0
0
0
0
0
0
0
0
0
0
0
3.4639535324535e-33
7.4491037649389e-23
2.9470674795597e-22
-2.8787163745013e-21
-3.444417130567e-20
-1.8310184500389e-19
-6.7684256094191e-19
-2.0239820584294e-18
-6.6551824597025e-18
-1.6972615927875e-17
-1.2256376903488e-16
-2.0145187010247e-16
1.9318077427554e-16
0.24395871309427
0.99826706436573
0.99999999999971
0.99999999999943
0.99999999999918
0.99999999999909
0.99999999999922
0.99999999999955
0.99830161997312
0.31746185179473
1.3221173396379e-20
1.5079975663288e-20
1.0267335948726e-20
5.3822387199091e-21
2.3796845371711e-21
9.1155872695454e-22
3.0694672892686e-22
9.1683719044837e-23
2.4398704220767e-23
5.7891138622374e-24
1.2223232420721e-24
2.2874266387439e-25
3.7724892321699e-26
5.4438067085027e-27
6.8126963891779e-28
7.3125393376556e-29
6.636855288482e-30
4.9974768459845e-31
3.0412550804985e-32
1.4420915610187e-33
5.1091153638811e-35
1.4589962242116e-36
7.9470919515131e-38
1.1713091614373e-38
1.8704904114515e-39
2.7460922964954e-40
3.6995748247583e-41
4.5638303094474e-42
5.1423270032477e-43
5.2769447827523e-44
4.9152163183442e-45
4.1395971671052e-46
3.138200697055e-47
2.1303155703855e-48
1.2870444983153e-49
6.8705932491676e-51
3.2129219211567e-52
1.30248082059e-53
4.5185941292421e-55
1.3198152111018e-56
3.1773788542368e-58
6.1253271339688e-60
9.0705629834563e-62
9.6652563199989e-64
6.5824251223256e-66
2.1475440785865e-68
0
0
0
0
0
0
0
0
0
0
0
0
0
0
0
0
0
0
0
0
0
0
0
0
0
0
0
0
0
0
0
6.3007808453411e-33
9.2064271687835e-23
7.9470205785836e-22
2.6934931127435e-21
6.991618058868e-22
-3.2212748871389e-20
-2.0485352353551e-19
-9.7615160916846e-19
-4.7140000147832e-18
-1.3025154555251e-17
-8.6720882088545e-17
-1.1371690291381e-16
3.4694469519536e-17
0.73584890814329
0.99999999999985
0.9999999999996
0.99999999999931
0.99999999999906
0.99999999999896
0.99999999999907
0.99999999999938
0.99999999999979
0.78430208172846
3.3085745557581e-21
4.1199303363557e-21
2.8963590917702e-21
1.5394170919756e-21
6.7333609434701e-22
2.5190613802477e-22
8.2176675422508e-23
2.3609624507939e-23
5.9968400479153e-24
1.3467585973582e-24
2.6672811431199e-25
4.6366771141339e-26
7.028297466754e-27
9.2117452660616e-28
1.0328606302334e-28
9.7707682666551e-30
7.6550203547235e-31
4.8426006510917e-32
2.3929197612514e-33
9.0560921857967e-35
3.2703503337253e-36
2.799129336563e-37
4.6279037578375e-38
7.634004469666e-39
1.1568255422464e-39
1.6075250475713e-40
2.0441311336659e-41
2.3727528118479e-42
2.506955901516e-43
2.4029855948388e-44
2.0815990673611e-45
1.6223598493171e-46
1.131732393257e-47
7.0232704971396e-49
3.8494936911267e-50
1.8475378423964e-51
7.683677950726e-53
2.7335374463048e-54
8.1841606044722e-56
2.0187340172667e-57
3.985579218019e-59
6.0415064315616e-61
6.586701208131e-63
4.58762367285e-65
1.5301251559928e-67
0
0
0
0
0
0
0
0
0
0
0
0
0
0
0
0
0
0
0
0
0
0
0
0
0
0
0
0
0
0
0
0
9.3104715878746e-33
9.5255864940745e-23
1.1892962717271e-21
7.8902376114668e-21
3.4615639307135e-20
1.1150167783454e-19
2.3622493570536e-19
-4.1835077873554e-21
-2.2957354309301e-18
-6.7941953378588e-18
-3.4543860423575e-17
-3.040592017259e-17
5.5511151231258e-17
0.96133584516861
0.99999999999983
0.99999999999961
0.99999999999936
0.99999999999914
0.99999999999905
0.99999999999915
0.99999999999941
0.99999999999976
0.96053204512999
7.5971826384124e-22
1.0028124665369e-21
7.2834872380846e-22
3.8474780751019e-22
1.6489937496624e-22
5.9930943900944e-23
1.884857791149e-23
5.1776345718457e-24
1.2464497093828e-24
2.6286640953061e-25
4.8404123258575e-26
7.7386875196804e-27
1.0659011517858e-27
1.2520587812633e-28
1.2376420523023e-29
1.0112114975468e-30
6.6669110320447e-32
3.4510937434369e-33
1.4258829659936e-34
6.8775319504039e-36
8.1944850078393e-37
1.4552397400221e-37
2.4801474689188e-38
3.8797256579722e-39
5.5610826814107e-40
7.2889193384571e-41
8.7149516689775e-42
9.4785272970013e-43
9.3468744697786e-44
8.3250389781398e-45
6.6676766626533e-46
4.7773024011583e-47
3.0434829636415e-48
1.7116458665396e-49
8.4250487895095e-51
3.5917717163865e-52
1.3092322449094e-53
4.0142795924801e-55
1.0135396663097e-56
2.0472156543256e-58
3.1732711684877e-60
3.5359041847638e-62
2.5158484544623e-64
8.5687510791491e-67
0
0
0
0
0
0
0
0
0
0
0
0
0
0
0
0
0
0
0
0
0
0
0
0
0
0
0
0
0
0
0
0
0
1.1495239981901e-32
8.2066897125295e-23
1.330486869699e-21
1.0839327755008e-20
5.5616384425205e-20
2.0177111210675e-19
5.1446212396373e-19
6.3205085366674e-19
-4.1475609764886e-19
-1.8741691191617e-18
-5.4229310041914e-18
6.2702603557057e-18
0.0014020412421543
0.95827178194197
0.99999999999986
0.99999999999969
0.99999999999951
0.99999999999935
0.99999999999929
0.99999999999937
0.99999999999957
0.99999999999982
0.91328393337176
1.6639650880229e-22
2.2750404358956e-22
1.6373800939668e-22
8.4753425899786e-23
3.5326512854739e-23
1.2393548454253e-23
3.7305258126764e-24
9.7207165990323e-25
2.1992480305152e-25
4.3151470768293e-26
7.3115231161493e-27
1.062538858961e-27
1.311962673854e-28
1.3590709380697e-29
1.1611675494952e-30
8.0043274805894e-32
4.3720077556631e-33
2.0282667200684e-34
1.3386040247685e-35
2.006190965481e-36
3.7565016627942e-37
6.6176108701694e-38
1.0690514771292e-38
1.5811001101157e-39
2.1365832071441e-40
2.6318128150811e-41
2.946866624495e-42
2.9897080867355e-43
2.7379093038626e-44
2.2532927597833e-45
1.6580065305005e-46
1.0841595425385e-47
6.254894036168e-49
3.1566893698633e-50
1.3790951961698e-51
5.1487570096043e-53
1.6160969025255e-54
4.1749093657322e-56
8.6235663505157e-58
1.3662092237734e-59
1.5551445134095e-61
1.1298056257165e-63
3.9274718504826e-66
0
0
0
0
0
0
0
0
0
0
0
0
0
0
0
0
0
0
0
0
0
0
0
0
0
0
0
0
0
0
0
0
0
0
1.2104302396885e-32
5.7396001782964e-23
1.1962104099751e-21
1.0924741656155e-20
5.9629449199079e-20
2.2421766271245e-19
5.9439742800234e-19
8.7298187928885e-19
5.0112020274111e-19
3.542381313088e-19
2.5226876463368e-18
1.6165729462267e-18
4.1633363423443e-17
0.75172664407562
0.99999999999992
0.9999999999998
0.99999999999967
0.99999999999958
0.99999999999955
0.99999999999962
0.99999999999976
0.99999999999994
0.7028405318141
3.4986667646286e-23
4.7001134473395e-23
3.2999180365744e-23
1.657908068282e-23
6.6649481035085e-24
2.2371143461306e-24
6.3878837241015e-25
1.5647320898162e-25
3.2947559093244e-26
5.950217042779e-27
9.1661358847366e-28
1.1943693996171e-28
1.3010448276289e-29
1.1661442839596e-30
8.4392719980771e-32
4.912256086954e-33
2.6434525083102e-34
2.3686806065216e-35
4.1581402604017e-36
8.1421275018271e-37
1.483525688294e-37
2.4762909592189e-38
3.7806930809396e-39
5.2694849778057e-40
6.6894609810022e-41
7.7135955553221e-42
8.0533417415025e-43
7.584443623544e-44
6.4150396275837e-45
4.8481494142736e-46
3.2541032144236e-47
1.9259914758717e-48
9.9658957291197e-50
4.4615618236811e-51
1.7059411584467e-52
5.4810036844729e-54
1.4485482696651e-55
3.059341265466e-57
4.9530884216332e-59
5.7585843430596e-61
4.2709056028068e-63
1.5150460641652e-65
0
0
0
0
0
0
0
0
0
0
0
0
0
0
0
0
0
0
0
0
0
0
0
0
0
0
0
0
0
0
0
0
0
0
0
1.1040904741251e-32
3.0059919633224e-23
8.8348244219389e-22
8.8574988901957e-21
5.0474720654998e-20
1.9455888395291e-19
5.2477491526506e-19
8.2176435739586e-19
6.9082855644799e-19
6.8494082117359e-19
1.5610538573562e-18
-3.2523714164535e-18
1.5128072972699e-17
0.28041731528056
0.99802707115496
0.99999999999989
0.99999999999982
0.99999999999977
0.99999999999977
0.99999999999982
0.99999999999992
0.99989896250224
0.28932439463098
7.0306117439875e-24
9.050170622914e-24
6.0515744064678e-24
2.9029631973923e-24
1.1137205586582e-24
3.5432583648938e-25
9.5104886972764e-26
2.168341862611e-26
4.2025503474015e-27
6.8995119005772e-28
9.5283115060234e-29
1.0953957442019e-29
1.0336216351309e-30
7.8931087660858e-32
4.961945980474e-33
3.1999831960435e-34
3.7682759969824e-35
7.3936293534881e-36
1.5080107666545e-36
2.8436385933867e-37
4.9074116346224e-38
7.7387415818308e-39
1.1130627888584e-39
1.4568845720141e-40
1.730715198658e-41
1.8601635295732e-42
1.8021594468296e-43
1.566988814212e-44
1.2166184923295e-45
8.3839118819562e-47
5.0914368012842e-48
2.7015531958001e-49
1.2394848493421e-50
4.854285111357e-52
1.5965427593292e-53
4.3168442800111e-55
9.3224282462532e-57
1.5424173721986e-58
1.8315974965713e-60
1.3867706611563e-62
5.0200017275126e-65
0
0
0
0
0
0
0
0
0
0
0
0
0
0
0
0
0
0
0
0
0
0
0
0
0
0
0
0
0
0
0
0
0
0
0
0
8.8310988724649e-33
7.9605500407158e-24
5.3329738289251e-22
5.9651819018733e-21
3.5641558485947e-20
1.4140657692551e-19
3.8675928432668e-19
6.3169889449707e-19
5.7935718925295e-19
4.2046188133374e-19
-1.1278841758931e-19
1.0945199132263e-18
1.6274545232101e-17
-1.2663481374631e-16
0.48406248120149
0.99962242982179
0.99999999999994
0.99999999999991
0.99999999999992
0.99999999999995
0.99999994557665
0.56325992452602
0.0013785030795833
4.8002989731062e-24
4.1509663990301e-24
2.2415300606634e-24
8.9997661606211e-25
2.8607095323559e-25
7.5069455005954e-26
1.6713453843888e-26
3.2032047531824e-27
5.2893465709124e-28
7.4554011190731e-29
8.8372643789294e-30
8.6656094733635e-31
6.9598085841257e-32
4.7767964123021e-33
3.7354245282167e-34
5.4125216716662e-35
1.1439124845029e-35
2.4222190240484e-36
4.728866179339e-37
8.4417406233011e-38
1.3756758472673e-38
2.0427860596933e-39
2.7580505950582e-40
3.376876469377e-41
3.7377587836478e-42
3.7264819309073e-43
3.3320166904508e-44
2.6584814279079e-45
1.8813828694044e-46
1.1725856692942e-47
6.3814825733168e-49
3.0011614709896e-50
1.2040775898164e-51
4.0544807199126e-53
1.121743247914e-54
2.4772940573567e-56
4.1891334595104e-58
5.0814337241005e-60
3.928022388759e-62
1.4511324448147e-64
0
0
0
0
0
0
0
0
0
0
0
0
0
0
0
0
0
0
0
0
0
0
0
0
0
0
0
0
0
0
0
0
0
0
0
0
0
6.2549411096385e-33
-5.1898478335759e-24
2.5212332813749e-22
3.3685774393899e-21
2.1556912719164e-20
8.898370190909e-20
2.471927177843e-19
4.2065303544595e-19
4.1741972798187e-19
2.3824221198006e-19
-3.4526568893898e-19
2.8019346606554e-18
8.5863702043556e-18
5.5207913372115e-18
-2.5587171270658e-17
0.27788201325897
0.75190269299692
0.9647743122265
0.95332736473296
0.75522310353651
0.33664187982861
0.0022159347241517
5.3703625100251e-23
3.483996546767e-23
1.4655097341523e-23
4.7434933330123e-24
1.2373713956166e-24
2.6456514311389e-25
4.701824119043e-26
7.0933894326122e-27
9.3135251723151e-28
1.0840895844863e-28
1.1203852799742e-29
1.0146435608817e-30
7.9713723946721e-32
5.6881507029235e-33
4.8275495758382e-34
7.2842545443129e-35
1.5686252940457e-35
3.4227319331769e-36
6.9143788085465e-37
1.2770233855002e-37
2.1510863470838e-38
3.2986799854624e-39
4.5953257411504e-40
5.800507693405e-41
6.6138729856523e-42
6.7874952411224e-43
6.2426542814947e-44
5.1197037189335e-45
3.7217333185935e-46
2.3811468920848e-47
1.3294161977562e-48
6.4099852907781e-50
2.6350327984334e-51
9.0859474792612e-53
2.5726134695426e-54
5.8109920167901e-56
1.0044728985864e-57
1.2448007199558e-59
9.825730113953e-62
3.7050546160033e-64
0
0
0
0
0
0
0
0
0
0
0
0
0
0
0
0
0
0
0
0
0
0
0
0
0
0
0
0
0
0
0
0
0
0
0
0
0
0
3.9546259250834e-33
-1.0035089224892e-23
7.8797042220654e-23
1.5833817891988e-21
1.1349138804531e-20
4.9494422580959e-20
1.4003073833147e-19
2.4877203274417e-19
2.7661267851858e-19
1.8443862539084e-19
-5.6595090495926e-21
1.885989093932e-18
4.184005897307e-18
3.7557983802443e-18
1.5826797693256e-18
5.2594742842664e-19
1.3451100280615e-19
2.4964371025678e-20
0.0038748079985935
2.6263677996588e-22
2.9271519611274e-22
2.8610018361834e-22
1.6604194478693e-22
6.7564488523776e-23
2.1301461890986e-23
5.4290196952395e-24
1.1344825574583e-24
1.9522526939131e-25
2.7853231615589e-26
3.3387682213364e-27
3.4267400422448e-28
3.0702685785977e-29
2.4413425139379e-30
1.7524295962957e-31
1.1776672978382e-32
8.6391131025852e-34
1.010100631754e-34
1.9651717148817e-35
4.3251563609649e-36
9.0148323969088e-37
1.7214442921643e-37
2.9962453746747e-38
4.7439819236788e-39
6.8181504198319e-40
8.8722914170551e-41
1.0421399097769e-41
1.1009559199293e-42
1.041641815761e-43
8.7819174233934e-45
6.5584216150343e-46
4.3079509664325e-47
2.4677599463393e-48
1.2200803336742e-49
5.1397652872771e-51
1.8150699531984e-52
5.2602531557445e-54
1.215451163781e-55
2.1479849299523e-57
2.7199327669497e-59
2.1926417494012e-61
8.4403775649047e-64
0
0
0
0
0
0
0
0
0
0
0
0
0
0
0
0
0
0
0
0
0
0
0
0
0
0
0
0
0
0
0
0
0
0
0
0
0
0
0
2.2466903899304e-33
-9.5790009940494e-24
-1.4942843892896e-24
5.986830517694e-22
5.2640176658434e-21
2.4719077285097e-20
7.1394244598771e-20
1.3227377804032e-19
1.6644209182051e-19
1.4849389468761e-19
1.6812583562655e-19
8.8815199174392e-19
1.6547388344366e-18
1.5242986969181e-18
7.8897917257223e-19
2.7697761692437e-19
6.6973356231067e-20
1.04392614373e-20
1.2804253283224e-21
8.7131029652931e-22
7.8529951842014e-22
4.5201644290376e-22
1.869782480522e-22
6.018604703455e-23
1.5672077873451e-23
3.3506055096033e-24
5.9016108989128e-25
8.5831457212835e-26
1.0375670545888e-26
1.0560737050679e-27
9.2220435174831e-29
7.0811458769932e-30
4.9264206387761e-31
3.1941219968875e-32
2.0330000585707e-33
1.6204066955126e-34
2.3686153435406e-35
4.9946096917152e-36
1.0655639251522e-36
2.0991935372051e-37
3.7699179623737e-38
6.1559148221671e-39
9.1198255464223e-40
1.222603034051e-40
1.4786149506472e-41
1.6073952917511e-42
1.5639996440313e-43
1.3552337668857e-44
1.039614886754e-45
7.0102760728589e-47
4.1200552790175e-48
2.0886739191231e-49
9.0168672356176e-51
3.2612622485392e-52
9.6745450498293e-54
2.2868984507845e-55
4.1322257755334e-57
5.3471334390829e-59
4.4027709093392e-61
1.7303737110269e-63
0
0
0
0
0
0
0
0
0
0
0
0
0
0
0
0
0
0
0
0
0
0
0
0
0
0
0
0
0
0
0
0
0
0
0
0
0
0
0
0
1.1533320926779e-33
-6.9579490955331e-24
-2.4637837428886e-23
1.6199207983103e-22
2.1747136527164e-21
1.1234790242052e-20
3.317392048745e-20
6.3803143493951e-20
8.9222304108129e-20
9.8665263080752e-20
1.4614949081528e-19
3.6138596391338e-19
5.4692681429414e-19
4.6964635965416e-19
2.3984683542546e-19
7.9339931295401e-20
1.766230049053e-20
3.5825904229433e-21
1.9128856274357e-21
1.4700231451738e-21
8.3872372807281e-22
3.5621502601056e-22
1.1877552207281e-22
3.2090044277106e-23
7.1210096108223e-24
1.302128674763e-24
1.9631839971563e-25
2.4486068243387e-26
2.5503395436924e-27
2.2572078435206e-28
1.7454847426304e-29
1.2226788389406e-30
7.9579160664584e-32
4.8315861168737e-33
2.9934575783166e-34
2.9404476820992e-35
5.4275404013682e-36
1.1656443675001e-36
2.3582574378019e-37
4.3561366932767e-38
7.3173192307109e-39
1.1151153703838e-39
1.5375185531167e-40
1.9119548358152e-41
2.1364265630957e-42
2.1358799726182e-43
1.9008351941993e-44
1.4969085215451e-45
1.0357225746777e-46
6.2428504823814e-48
3.2441650584691e-49
1.434886181621e-50
5.3143660358496e-52
1.6135160975115e-53
3.9015727880318e-55
7.2077958337966e-57
9.5312050327068e-59
8.0160607151341e-61
3.216748643956e-63
0
0
0
0
0
0
0
0
0
0
0
0
0
0
0
0
0
0
0
0
0
0
0
0
0
0
0
0
0
0
0
0
0
0
0
0
0
0
0
0
0
5.3750956691914e-34
-4.224283608611e-24
-2.2596470363886e-23
1.3354772219668e-23
8.0970386326089e-22
4.7016037321459e-21
1.4199471668272e-20
2.817975809905e-20
4.2574561593336e-20
5.3370340286643e-20
7.9050332578183e-20
1.3277193593126e-19
1.6068590450785e-19
1.2081251934114e-19
5.7080387113553e-20
1.8862920047132e-20
5.9946999534395e-21
3.1174872215054e-21
2.0744646087236e-21
1.1587489420591e-21
5.0533656181352e-22
1.7555933690515e-22
4.9604079079483e-23
1.1517002614159e-23
2.2026810727851e-24
3.4688337354127e-25
4.5046152309084e-26
4.8575277103547e-27
4.4208482515313e-28
3.4973968010776e-29
2.5038073020696e-30
1.6644961195079e-31
1.0115763765166e-32
5.631913822436e-34
3.9212540250329e-35
5.7448104773919e-36
1.2086477143513e-36
2.4930761468141e-37
4.7128045684753e-38
8.1090500268478e-39
1.2666543045609e-39
1.7908395833346e-40
2.2840630579959e-41
2.6178455065392e-42
2.6843467452961e-43
2.4499167649876e-44
1.9781266122965e-45
1.4029271689367e-46
8.6649810244772e-48
4.612370787533e-49
2.0888431666532e-50
7.9182173450823e-52
2.4595181040929e-53
6.081714080708e-55
1.1484345135956e-56
1.5516054823593e-58
1.3327535450031e-60
5.4602743319557e-63
0
0
0
0
0
0
0
0
0
0
0
0
0
0
0
0
0
0
0
0
0
0
0
0
0
0
0
0
0
0
0
0
0
0
0
0
0
0
0
0
0
0
2.2834136044844e-34
-2.2255799025991e-24
-1.4280207679821e-23
-1.7966056628472e-23