/*--------------------------------*- C++ -*----------------------------------*\
  =========                 |
  \\      /  F ield         | OpenFOAM: The Open Source CFD Toolbox
   \\    /   O peration     | Website:  https://openfoam.org
    \\  /    A nd           | Version:  7
     \\/     M anipulation  |
\*---------------------------------------------------------------------------*/
FoamFile
{
    version     2.0;
    format      ascii;
    class       surfaceScalarField;
    location    "0.005";
    object      phi;
}
// * * * * * * * * * * * * * * * * * * * * * * * * * * * * * * * * * * * * * //

dimensions      [0 3 -1 0 0 0 0];

internalField   nonuniform List<scalar> 
24170
(
3.11184e-06
-5.51994e-07
3.04781e-06
-3.42536e-07
2.97727e-06
-1.39947e-07
2.9057e-06
-3.49033e-08
2.84041e-06
1.33426e-08
2.78327e-06
3.23609e-08
2.73409e-06
3.76865e-08
2.69211e-06
3.73401e-08
2.65642e-06
3.48495e-08
2.62602e-06
3.16439e-08
2.59985e-06
2.8368e-08
2.57715e-06
2.55394e-08
2.55719e-06
2.29653e-08
2.53943e-06
2.08447e-08
2.52372e-06
1.88379e-08
2.50801e-06
1.78142e-08
2.49838e-06
1.70602e-08
1.57953e-08
2.47157e-06
3.44748e-06
2.3059e-07
3.45837e-06
2.9807e-07
3.45219e-06
2.21194e-07
3.43916e-06
1.57391e-07
3.42397e-06
1.20045e-07
3.40696e-06
9.65117e-08
3.3879e-06
8.03374e-08
3.36738e-06
6.86047e-08
3.34623e-06
5.97091e-08
3.32507e-06
5.2631e-08
3.30437e-06
4.68446e-08
3.2844e-06
4.2004e-08
3.26537e-06
3.79097e-08
3.24728e-06
3.44866e-08
3.23037e-06
3.14369e-08
3.21418e-06
2.93478e-08
3.20008e-06
2.62525e-08
2.92844e-08
3.18683e-06
3.66881e-06
5.58698e-08
3.67844e-06
6.35421e-08
3.68574e-06
5.16482e-08
3.68953e-06
5.63325e-08
3.69089e-06
6.42483e-08
3.69006e-06
6.73159e-08
3.68703e-06
6.65253e-08
3.6822e-06
6.40146e-08
3.67604e-06
6.08075e-08
3.6689e-06
5.73272e-08
3.6611e-06
5.38041e-08
3.65283e-06
5.04236e-08
3.64431e-06
4.72209e-08
3.63565e-06
4.42971e-08
3.62705e-06
4.15149e-08
3.61858e-06
3.93204e-08
3.6104e-06
3.68993e-08
3.58213e-08
3.60351e-06
3.92717e-06
1.45492e-08
3.93451e-06
4.41312e-08
3.94263e-06
5.89585e-08
3.94838e-06
6.8577e-08
3.95249e-06
7.33488e-08
3.95546e-06
7.32476e-08
3.95722e-06
7.0588e-08
3.95785e-06
6.7134e-08
3.95763e-06
6.35192e-08
3.95674e-06
5.99142e-08
3.9553e-06
5.63948e-08
3.95341e-06
5.30716e-08
3.95119e-06
4.99323e-08
3.9487e-06
4.70462e-08
3.94605e-06
4.43135e-08
3.94338e-06
4.19782e-08
3.94067e-06
3.96019e-08
3.76749e-08
3.9385e-06
4.20892e-06
1.29045e-08
4.21488e-06
4.77409e-08
4.22177e-06
6.19687e-08
4.22707e-06
6.68415e-08
4.23151e-06
6.90943e-08
4.23548e-06
6.88643e-08
4.23875e-06
6.68679e-08
4.24125e-06
6.41388e-08
4.24314e-06
6.11653e-08
4.24454e-06
5.81101e-08
4.24555e-06
5.50601e-08
4.24622e-06
5.21159e-08
4.24661e-06
4.92953e-08
4.24682e-06
4.66483e-08
4.24688e-06
4.41279e-08
4.24688e-06
4.18421e-08
4.24686e-06
3.95762e-08
3.7436e-08
4.24704e-06
4.51106e-06
1.43468e-08
4.51614e-06
4.43617e-08
4.52215e-06
5.65268e-08
4.52719e-06
6.08485e-08
4.53165e-06
6.35541e-08
4.53587e-06
6.42235e-08
4.53963e-06
6.30319e-08
4.54282e-06
6.09106e-08
4.54555e-06
5.84185e-08
4.54791e-06
5.57605e-08
4.54996e-06
5.30439e-08
4.55174e-06
5.03659e-08
4.55331e-06
4.77655e-08
4.55471e-06
4.52803e-08
4.55599e-06
4.28922e-08
4.55723e-06
4.06399e-08
4.55843e-06
3.84164e-08
3.6195e-08
4.55968e-06
4.83459e-06
1.33687e-08
4.83911e-06
3.84297e-08
4.84469e-06
5.05137e-08
4.84963e-06
5.57195e-08
4.8541e-06
5.88728e-08
4.85838e-06
5.99584e-08
4.86231e-06
5.92039e-08
4.86581e-06
5.74717e-08
4.86895e-06
5.53173e-08
4.87177e-06
5.2954e-08
4.87433e-06
5.04944e-08
4.8767e-06
4.80299e-08
4.87887e-06
4.56093e-08
4.8809e-06
4.32625e-08
4.88283e-06
4.09854e-08
4.88467e-06
3.87852e-08
4.88648e-06
3.66029e-08
3.43885e-08
4.88828e-06
5.18127e-06
1.17953e-08
5.18536e-06
3.33481e-08
5.19062e-06
4.54232e-08
5.19556e-06
5.11402e-08
5.20003e-06
5.43611e-08
5.20433e-06
5.5623e-08
5.20839e-06
5.52021e-08
5.21209e-06
5.38077e-08
5.21546e-06
5.19484e-08
5.21856e-06
4.98435e-08
5.22143e-06
4.76103e-08
5.22413e-06
4.53374e-08
5.22666e-06
4.30783e-08
5.22904e-06
4.08604e-08
5.23135e-06
3.86867e-08
5.2336e-06
3.65533e-08
5.23578e-06
3.44254e-08
3.22648e-08
5.23787e-06
5.55289e-06
1.03771e-08
5.5566e-06
2.91429e-08
5.56155e-06
4.07048e-08
5.5664e-06
4.65698e-08
5.57092e-06
4.97893e-08
5.57528e-06
5.11949e-08
5.57941e-06
5.10735e-08
5.58324e-06
4.99865e-08
5.58679e-06
4.83939e-08
5.59012e-06
4.65233e-08
5.59322e-06
4.44966e-08
5.59617e-06
4.24011e-08
5.59897e-06
4.02921e-08
5.60163e-06
3.8198e-08
5.60418e-06
3.61261e-08
5.60665e-06
3.40725e-08
5.60907e-06
3.20158e-08
2.99376e-08
5.61137e-06
5.9512e-06
9.11529e-09
5.95455e-06
2.54295e-08
5.9592e-06
3.61632e-08
5.96398e-06
4.20006e-08
5.96853e-06
4.52207e-08
5.97294e-06
4.67353e-08
5.97716e-06
4.68558e-08
5.98111e-06
4.60351e-08
5.9848e-06
4.46828e-08
5.98828e-06
4.30276e-08
5.99158e-06
4.11941e-08
5.99473e-06
3.92676e-08
5.99773e-06
3.73043e-08
6.00059e-06
3.53344e-08
6.00335e-06
3.33696e-08
6.006e-06
3.14094e-08
6.00856e-06
2.94429e-08
2.74684e-08
6.01102e-06
6.37811e-06
7.93803e-09
6.38119e-06
2.2059e-08
6.38553e-06
3.18347e-08
6.39019e-06
3.75048e-08
6.39471e-06
4.06865e-08
6.39914e-06
4.22575e-08
6.40345e-06
4.25586e-08
6.40756e-06
4.19636e-08
6.41141e-06
4.08282e-08
6.41505e-06
3.93732e-08
6.41852e-06
3.77234e-08
6.42183e-06
3.59616e-08
6.42499e-06
3.41439e-08
6.42802e-06
3.23029e-08
6.43095e-06
3.0454e-08
6.43375e-06
2.86021e-08
6.43646e-06
2.67439e-08
2.48907e-08
6.439e-06
5.74186e-06
6.99988e-09
5.74425e-06
1.94477e-08
5.7477e-06
2.83591e-08
5.75152e-06
3.37753e-08
5.75537e-06
3.68775e-08
5.75916e-06
3.84585e-08
5.76283e-06
3.88699e-08
5.76636e-06
3.84354e-08
5.76972e-06
3.74658e-08
5.77293e-06
3.61692e-08
5.776e-06
3.46685e-08
5.77893e-06
3.30443e-08
5.78171e-06
3.13518e-08
5.78438e-06
2.96252e-08
5.78696e-06
2.7883e-08
5.78943e-06
2.61343e-08
5.79178e-06
2.43808e-08
2.2642e-08
5.79401e-06
6.99926e-06
6.01142e-09
7.00179e-06
1.67088e-08
7.00551e-06
2.459e-08
7.00978e-06
2.95983e-08
7.01416e-06
3.25459e-08
7.01849e-06
3.40946e-08
7.02276e-06
3.45866e-08
7.02689e-06
3.4301e-08
7.03088e-06
3.35002e-08
7.03469e-06
3.2373e-08
7.03829e-06
3.10369e-08
7.04175e-06
2.95693e-08
7.04511e-06
2.8024e-08
7.04829e-06
2.64359e-08
7.05134e-06
2.48264e-08
7.05427e-06
2.32085e-08
7.05707e-06
2.15885e-08
1.99917e-08
7.05971e-06
8.53198e-06
4.98799e-09
8.53464e-06
1.38631e-08
8.53861e-06
2.05628e-08
8.54331e-06
2.49955e-08
8.54822e-06
2.7682e-08
8.55316e-06
2.91337e-08
8.55811e-06
2.96601e-08
8.56293e-06
2.94972e-08
8.56758e-06
2.88582e-08
8.57205e-06
2.79058e-08
8.57632e-06
2.67479e-08
8.58041e-06
2.54568e-08
8.58438e-06
2.4083e-08
8.58817e-06
2.26615e-08
8.59175e-06
2.12154e-08
8.5952e-06
1.97608e-08
8.59849e-06
1.83072e-08
1.68832e-08
8.60157e-06
1.04004e-05
3.92562e-09
1.04032e-05
1.0911e-08
1.04074e-05
1.62915e-08
1.04125e-05
1.99744e-08
1.04179e-05
2.22692e-08
1.04236e-05
2.35388e-08
1.04292e-05
2.4038e-08
1.04347e-05
2.3957e-08
1.04401e-05
2.34613e-08
1.04453e-05
2.26827e-08
1.04504e-05
2.17136e-08
1.04552e-05
2.06186e-08
1.04598e-05
1.94428e-08
1.04643e-05
1.82193e-08
1.04685e-05
1.69714e-08
1.04726e-05
1.57166e-08
1.04764e-05
1.44659e-08
1.32485e-08
1.048e-05
1.2678e-05
2.82174e-09
1.26809e-05
7.84502e-09
1.26854e-05
1.17728e-08
1.26909e-05
1.45287e-08
1.26969e-05
1.62822e-08
1.27032e-05
1.72646e-08
1.27096e-05
1.76595e-08
1.27159e-05
1.76072e-08
1.27222e-05
1.72261e-08
1.27283e-05
1.66133e-08
1.27341e-05
1.58409e-08
1.27398e-05
1.49608e-08
1.27452e-05
1.40107e-08
1.27504e-05
1.3019e-08
1.27554e-05
1.20067e-08
1.27601e-05
1.09906e-08
1.27646e-05
9.98121e-09
9.00593e-09
1.27688e-05
1.54545e-05
1.66224e-09
1.54575e-05
4.61838e-09
1.54623e-05
6.9471e-09
1.54682e-05
8.59577e-09
1.5475e-05
9.64606e-09
1.5482e-05
1.02198e-08
1.54892e-05
1.04224e-08
1.54964e-05
1.03375e-08
1.55036e-05
1.00361e-08
1.55107e-05
9.57761e-09
1.55175e-05
9.0084e-09
1.55242e-05
8.36315e-09
1.55305e-05
7.66849e-09
1.55365e-05
6.94486e-09
1.55423e-05
6.20833e-09
1.55479e-05
5.47214e-09
1.55531e-05
4.74464e-09
4.04917e-09
1.5558e-05
1.8839e-05
4.02279e-10
1.88423e-05
1.10483e-09
1.88475e-05
1.64329e-09
1.88542e-05
1.99347e-09
1.88617e-05
2.17774e-09
1.88697e-05
2.22192e-09
1.8878e-05
2.14735e-09
1.88864e-05
1.97447e-09
1.88948e-05
1.72384e-09
1.8903e-05
1.41385e-09
1.89109e-05
1.05997e-09
1.89185e-05
6.75056e-10
1.8926e-05
2.70205e-10
1.89331e-05
-1.45124e-10
1.89399e-05
-5.62718e-10
1.89463e-05
-9.75222e-10
1.89524e-05
-1.37822e-09
-1.75414e-09
1.89582e-05
2.29649e-05
-1.06889e-09
2.29687e-05
-3.00631e-09
2.29748e-05
-4.58665e-09
2.29826e-05
-5.78418e-09
2.29916e-05
-6.63235e-09
2.30011e-05
-7.21913e-09
2.30109e-05
-7.62465e-09
2.30207e-05
-7.90213e-09
2.30305e-05
-8.09049e-09
2.30401e-05
-8.22084e-09
2.30495e-05
-8.31546e-09
2.30586e-05
-8.38788e-09
2.30673e-05
-8.44591e-09
2.30757e-05
-8.49386e-09
2.30836e-05
-8.53381e-09
2.30912e-05
-8.56575e-09
2.30984e-05
-8.59039e-09
-8.59705e-09
2.31052e-05
1.68119e-05
-2.19752e-09
1.68149e-05
-6.18594e-09
1.68198e-05
-9.41107e-09
1.68257e-05
-1.17525e-08
1.68325e-05
-1.33118e-08
1.68396e-05
-1.43101e-08
1.68469e-05
-1.4912e-08
1.68542e-05
-1.52189e-08
1.68615e-05
-1.53149e-08
1.68685e-05
-1.52731e-08
1.68753e-05
-1.51454e-08
1.68819e-05
-1.49643e-08
1.68882e-05
-1.47507e-08
1.68942e-05
-1.4518e-08
1.68999e-05
-1.42751e-08
1.69054e-05
-1.40263e-08
1.69106e-05
-1.37754e-08
-1.35156e-08
1.69155e-05
1.46358e-05
-3.26926e-09
1.46387e-05
-9.288e-09
1.46433e-05
-1.41473e-08
1.46491e-05
-1.75019e-08
1.46554e-05
-1.95916e-08
1.4662e-05
-2.08555e-08
1.46687e-05
-2.15483e-08
1.46752e-05
-2.18078e-08
1.46817e-05
-2.17608e-08
1.46879e-05
-2.15188e-08
1.46939e-05
-2.11573e-08
1.46997e-05
-2.07234e-08
1.47052e-05
-2.02482e-08
1.47104e-05
-1.97531e-08
1.47154e-05
-1.92511e-08
1.47202e-05
-1.87499e-08
1.47246e-05
-1.82544e-08
-1.77605e-08
1.47289e-05
1.27413e-05
-4.27947e-09
1.27442e-05
-1.23941e-08
1.27489e-05
-1.88997e-08
1.27547e-05
-2.31347e-08
1.27607e-05
-2.56315e-08
1.27668e-05
-2.70555e-08
1.27729e-05
-2.77168e-08
1.2779e-05
-2.7817e-08
1.27848e-05
-2.75557e-08
1.27904e-05
-2.70798e-08
1.27957e-05
-2.64736e-08
1.28008e-05
-2.57897e-08
1.28056e-05
-2.50654e-08
1.28102e-05
-2.43268e-08
1.28145e-05
-2.35893e-08
1.28186e-05
-2.28617e-08
1.28225e-05
-2.21493e-08
-2.14492e-08
1.28262e-05
1.10921e-05
-5.19653e-09
1.1095e-05
-1.58399e-08
1.10998e-05
-2.37949e-08
1.11056e-05
-2.84579e-08
1.11115e-05
-3.12527e-08
1.11173e-05
-3.2891e-08
1.1123e-05
-3.35104e-08
1.11285e-05
-3.33834e-08
1.11337e-05
-3.28414e-08
1.11387e-05
-3.20851e-08
1.11434e-05
-3.12064e-08
1.11479e-05
-3.02599e-08
1.11521e-05
-2.92866e-08
1.11561e-05
-2.83138e-08
1.11599e-05
-2.73565e-08
1.11635e-05
-2.64221e-08
1.11669e-05
-2.55144e-08
-2.46302e-08
1.11701e-05
9.65615e-06
-5.46952e-09
9.65912e-06
-2.03476e-08
9.66421e-06
-2.98957e-08
9.67005e-06
-3.40105e-08
9.67569e-06
-3.64388e-08
9.68115e-06
-3.80705e-08
9.68645e-06
-3.86419e-08
9.69152e-06
-3.83558e-08
9.69625e-06
-3.76032e-08
9.70069e-06
-3.66122e-08
9.70488e-06
-3.54851e-08
9.70884e-06
-3.42889e-08
9.7126e-06
-3.30739e-08
9.71613e-06
-3.18718e-08
9.71941e-06
-3.06987e-08
9.72249e-06
-2.95622e-08
9.72539e-06
-2.84649e-08
-2.74036e-08
9.72815e-06
8.406e-06
-2.8328e-09
8.40914e-06
-2.34009e-08
8.41445e-06
-3.68439e-08
8.42003e-06
-4.14574e-08
8.42533e-06
-4.31346e-08
8.43058e-06
-4.3774e-08
8.4357e-06
-4.35216e-08
8.44045e-06
-4.26871e-08
8.44482e-06
-4.1571e-08
8.44885e-06
-4.02955e-08
8.45259e-06
-3.89164e-08
8.45603e-06
-3.74884e-08
8.45922e-06
-3.6058e-08
8.4622e-06
-3.46537e-08
8.46497e-06
-3.32915e-08
8.46753e-06
-3.19787e-08
8.46989e-06
-3.07169e-08
-2.95029e-08
8.47206e-06
7.31644e-06
8.32815e-10
7.31975e-06
-1.77288e-08
7.32617e-06
-3.45118e-08
7.33208e-06
-4.53659e-08
7.3372e-06
-5.0941e-08
7.34229e-06
-5.22584e-08
7.34722e-06
-5.12127e-08
7.35168e-06
-4.93367e-08
7.35563e-06
-4.7269e-08
7.35917e-06
-4.51603e-08
7.36232e-06
-4.30664e-08
7.36509e-06
-4.10353e-08
7.36754e-06
-3.9098e-08
7.3697e-06
-3.72635e-08
7.3716e-06
-3.55372e-08
7.37324e-06
-3.39138e-08
7.3747e-06
-3.23872e-08
-3.09396e-08
7.376e-06
6.36615e-06
-2.48796e-08
6.36979e-06
-2.43119e-08
6.3785e-06
-1.58844e-08
6.38631e-06
-2.24828e-08
6.39235e-06
-3.37288e-08
6.39747e-06
-4.0983e-08
6.40183e-06
-4.40864e-08
6.40532e-06
-4.49367e-08
6.40809e-06
-4.45898e-08
6.41025e-06
-4.35007e-08
6.41187e-06
-4.19728e-08
6.41301e-06
-4.02318e-08
6.41374e-06
-3.84217e-08
6.41412e-06
-3.66201e-08
6.41415e-06
-3.48791e-08
6.41395e-06
-3.32214e-08
6.41357e-06
-3.16707e-08
-3.01969e-08
6.41297e-06
5.54382e-06
-1.77162e-07
5.54942e-06
-2.50401e-07
5.55806e-06
-1.95026e-07
5.566e-06
-1.40912e-07
5.57233e-06
-1.08159e-07
5.57675e-06
-8.72691e-08
5.57908e-06
-7.26497e-08
5.57965e-06
-6.22559e-08
5.57886e-06
-5.46688e-08
5.57705e-06
-4.87939e-08
5.57447e-06
-4.40248e-08
5.57124e-06
-4.00401e-08
5.56752e-06
-3.66527e-08
5.56347e-06
-3.37295e-08
5.55917e-06
-3.11836e-08
5.55471e-06
-2.89747e-08
5.55019e-06
-2.70789e-08
-2.55797e-08
5.54561e-06
4.85286e-06
4.48664e-07
4.8671e-06
2.91328e-07
4.86734e-06
1.28636e-07
4.86231e-06
4.12272e-08
4.85651e-06
-2.06802e-09
4.8493e-06
-2.1419e-08
4.83981e-06
-2.86234e-08
4.82841e-06
-3.03436e-08
4.81579e-06
-2.97294e-08
4.80251e-06
-2.81279e-08
4.78891e-06
-2.61528e-08
4.77527e-06
-2.41377e-08
4.76178e-06
-2.22163e-08
4.74857e-06
-2.04537e-08
4.73574e-06
-1.8892e-08
4.72336e-06
-1.74929e-08
4.71151e-06
-1.63028e-08
-1.56285e-08
4.70084e-06
4.16127e-06
4.12514e-06
4.07414e-06
4.01558e-06
3.959e-06
3.90795e-06
3.8626e-06
3.82245e-06
3.78705e-06
3.7558e-06
3.72807e-06
3.70332e-06
3.6811e-06
3.66104e-06
3.64282e-06
3.62612e-06
3.61067e-06
3.59556e-06
1.1712e-08
-1.1449e-08
2.41073e-08
-1.35512e-08
3.37113e-08
-9.79618e-09
3.87929e-08
-4.65877e-09
3.86398e-08
6.63224e-10
3.37003e-08
5.48196e-09
2.50631e-08
9.43118e-09
1.36177e-08
1.24566e-08
6.17639e-11
1.46985e-08
-1.51167e-08
1.63667e-08
-3.15967e-08
1.76744e-08
-4.92001e-08
1.87829e-08
-6.78379e-08
1.97958e-08
-8.7457e-08
2.07632e-08
-1.08022e-07
2.17097e-08
-1.29508e-07
2.26397e-08
-1.51882e-07
2.3556e-08
-1.75109e-07
2.4453e-08
-1.99145e-07
2.53286e-08
-2.23947e-07
2.61749e-08
-2.49454e-07
2.69878e-08
-2.75596e-07
2.77627e-08
-3.02294e-07
2.84954e-08
-3.29452e-07
2.9194e-08
-3.56981e-07
2.98699e-08
-3.8482e-07
3.05663e-08
-4.12945e-07
3.13454e-08
-4.41339e-07
3.23232e-08
-4.70052e-07
3.36548e-08
-4.99302e-07
3.56847e-08
-5.29515e-07
3.85826e-08
-5.61037e-07
4.25708e-08
-5.95229e-07
4.81979e-08
-6.32321e-07
4.19329e-08
-6.67268e-07
3.08403e-08
-7.02562e-07
3.3474e-08
-7.43069e-07
3.63378e-08
-7.86572e-07
3.94353e-08
-8.32417e-07
4.22368e-08
-8.79736e-07
4.37513e-08
-9.26286e-07
4.61874e-08
-9.71365e-07
4.66882e-08
-1.01446e-06
4.21213e-08
-1.05537e-06
4.1839e-08
-1.09777e-06
4.52295e-08
-1.14201e-06
4.57293e-08
-1.18606e-06
4.58717e-08
-1.23014e-06
4.58673e-08
-1.27419e-06
4.58033e-08
-1.31815e-06
4.56743e-08
-1.36199e-06
4.5499e-08
-1.40563e-06
4.52847e-08
-1.44906e-06
4.50431e-08
-1.49224e-06
4.47785e-08
-1.53516e-06
4.44953e-08
-1.57779e-06
4.41944e-08
-1.62012e-06
4.38766e-08
-1.66212e-06
4.35407e-08
-1.70379e-06
4.31858e-08
-1.7451e-06
4.28098e-08
-1.78602e-06
4.24111e-08
-1.82653e-06
4.19872e-08
-1.86661e-06
4.15363e-08
-1.90623e-06
4.10558e-08
-1.94536e-06
4.05438e-08
-1.98397e-06
3.99982e-08
-2.02202e-06
3.94173e-08
-2.05947e-06
3.87992e-08
-2.09629e-06
3.81425e-08
-2.13245e-06
3.74456e-08
-2.1679e-06
3.67075e-08
-2.20261e-06
3.59269e-08
-2.23653e-06
3.5103e-08
-2.26962e-06
3.42352e-08
-2.30183e-06
3.33228e-08
-2.33314e-06
3.23653e-08
-2.36348e-06
3.13629e-08
-2.39284e-06
3.03153e-08
-2.42114e-06
2.92227e-08
-2.44836e-06
2.8085e-08
-2.47446e-06
2.69026e-08
-2.49939e-06
2.56757e-08
-2.52312e-06
2.44047e-08
-2.5456e-06
2.30895e-08
-2.56679e-06
2.17307e-08
-2.58665e-06
2.0328e-08
-2.60514e-06
1.88815e-08
-2.62223e-06
1.739e-08
-2.63786e-06
1.58522e-08
-2.652e-06
1.42647e-08
-2.66461e-06
1.26227e-08
-2.67563e-06
1.0921e-08
-2.685e-06
9.15313e-09
-2.69265e-06
7.31058e-09
-2.69851e-06
5.38503e-09
-2.70249e-06
3.38164e-09
-2.70451e-06
1.3421e-09
-2.70444e-06
-6.41781e-10
-2.70255e-06
-2.47432e-09
-2.69908e-06
-4.20232e-09
-2.69401e-06
-5.9168e-09
-2.68736e-06
-7.63182e-09
-2.67914e-06
-9.35609e-09
-2.66934e-06
-1.10904e-08
-2.65795e-06
-1.28337e-08
-2.64497e-06
-1.45847e-08
-2.63041e-06
-1.63412e-08
-2.61425e-06
-1.8102e-08
-2.59652e-06
-1.98648e-08
-2.57719e-06
-2.16287e-08
-2.55631e-06
-2.33912e-08
-2.53385e-06
-2.51515e-08
-2.50983e-06
-2.69068e-08
-2.48428e-06
-2.86566e-08
-2.45719e-06
-3.0398e-08
-2.42858e-06
-3.21303e-08
-2.39849e-06
-3.38506e-08
-2.36691e-06
-3.5558e-08
-2.33388e-06
-3.725e-08
-2.29941e-06
-3.89263e-08
-2.26353e-06
-4.05852e-08
-2.22628e-06
-4.22258e-08
-2.18767e-06
-4.38441e-08
-2.14774e-06
-4.54393e-08
-2.10651e-06
-4.70072e-08
-2.06401e-06
-4.85488e-08
-2.02029e-06
-5.00618e-08
-1.97536e-06
-5.15483e-08
-1.92929e-06
-5.30046e-08
-1.88208e-06
-5.4432e-08
-1.83379e-06
-5.58279e-08
-1.78446e-06
-5.71897e-08
-1.73413e-06
-5.85108e-08
-1.68285e-06
-5.97988e-08
-1.63065e-06
-6.10519e-08
-1.57758e-06
-6.22683e-08
-1.5237e-06
-6.3444e-08
-1.46904e-06
-6.45804e-08
-1.41365e-06
-6.56769e-08
-1.35759e-06
-6.67343e-08
-1.30091e-06
-6.77526e-08
-1.24366e-06
-6.87325e-08
-1.18588e-06
-6.96745e-08
-1.12763e-06
-7.05786e-08
-1.06895e-06
-7.14454e-08
-1.00988e-06
-7.22752e-08
-9.50483e-07
-7.30689e-08
-8.90801e-07
-7.38272e-08
-8.30879e-07
-7.45518e-08
-7.70763e-07
-7.52434e-08
-7.10497e-07
-7.59043e-08
-6.50124e-07
-7.65356e-08
-5.89687e-07
-7.71398e-08
-5.29228e-07
-7.77186e-08
-4.68784e-07
-7.8274e-08
-4.08396e-07
-7.88081e-08
-3.481e-07
-7.93225e-08
-2.87935e-07
-7.98169e-08
-2.27936e-07
-8.02938e-08
-1.6814e-07
-8.07603e-08
-1.08586e-07
-8.12282e-08
-4.9322e-08
-8.16699e-08
9.59138e-09
-8.18725e-08
6.81517e-08
-8.1332e-08
1.26359e-07
-8.02155e-08
1.84163e-07
-7.90495e-08
2.41539e-07
-7.79312e-08
2.98488e-07
-7.68629e-08
3.55008e-07
-7.58328e-08
4.11091e-07
-7.48235e-08
4.66709e-07
-7.38115e-08
5.21809e-07
-7.27627e-08
5.7629e-07
-7.16222e-08
6.29986e-07
-7.02969e-08
6.82507e-07
-6.86076e-08
7.3341e-07
-6.62154e-08
7.80248e-07
-6.22687e-08
8.23465e-07
-5.50372e-08
8.40889e-07
-3.92452e-08
4.10969e-09
8.61052e-07
8.8286e-09
-1.96317e-08
1.24827e-08
-1.66831e-08
1.11555e-08
-8.50314e-09
6.80934e-09
-2.83475e-10
-1.08475e-10
7.42676e-09
-9.40826e-09
1.43556e-08
-2.10354e-08
2.03308e-08
-3.4865e-08
2.53185e-08
-5.07105e-08
2.94138e-08
-6.83278e-08
3.27893e-08
-8.74853e-08
3.56393e-08
-1.08007e-07
3.81322e-08
-1.29767e-07
4.03956e-08
-1.52672e-07
4.25116e-08
-1.76661e-07
4.45314e-08
-2.01694e-07
4.64815e-08
-2.27746e-07
4.83783e-08
-2.54797e-07
5.02275e-08
-2.82837e-07
5.20345e-08
-3.11865e-07
5.38e-08
-3.41888e-07
5.55269e-08
-3.72928e-07
5.72184e-08
-4.05023e-07
5.88782e-08
-4.38238e-07
6.05175e-08
-4.72676e-07
6.21473e-08
-5.08477e-07
6.37908e-08
-5.45813e-07
6.54669e-08
-5.84889e-07
6.72037e-08
-6.25902e-07
6.90119e-08
-6.68918e-07
7.09083e-08
-7.13604e-07
7.28796e-08
-7.5869e-07
7.49172e-08
-8.0504e-07
7.70394e-08
-8.5298e-07
7.88166e-08
-9.00988e-07
8.04212e-08
-9.47633e-07
8.26043e-08
-9.91893e-07
8.44609e-08
-1.03462e-06
8.58636e-08
-1.07649e-06
8.67134e-08
-1.11757e-06
8.6912e-08
-1.15851e-06
8.67111e-08
-1.20067e-06
8.62512e-08
-1.24411e-06
8.55106e-08
-1.2877e-06
8.50922e-08
-1.33013e-06
8.5006e-08
-1.37131e-06
8.48004e-08
-1.41188e-06
8.4493e-08
-1.45192e-06
8.41138e-08
-1.49149e-06
8.36774e-08
-1.53061e-06
8.31931e-08
-1.56933e-06
8.26677e-08
-1.60764e-06
8.21068e-08
-1.64557e-06
8.15153e-08
-1.68311e-06
8.08956e-08
-1.72025e-06
8.0249e-08
-1.75698e-06
7.95744e-08
-1.7933e-06
7.88699e-08
-1.82919e-06
7.81331e-08
-1.86464e-06
7.73609e-08
-1.89961e-06
7.65496e-08
-1.9341e-06
7.56957e-08
-1.96809e-06
7.47956e-08
-2.00155e-06
7.38454e-08
-2.03445e-06
7.28417e-08
-2.06677e-06
7.17803e-08
-2.09849e-06
7.06588e-08
-2.12956e-06
6.94744e-08
-2.15996e-06
6.82237e-08
-2.18967e-06
6.69048e-08
-2.21864e-06
6.55154e-08
-2.24685e-06
6.40539e-08
-2.27426e-06
6.25187e-08
-2.30084e-06
6.09086e-08
-2.32657e-06
5.92226e-08
-2.3514e-06
5.74602e-08
-2.3753e-06
5.56208e-08
-2.39823e-06
5.37047e-08
-2.42017e-06
5.17118e-08
-2.44108e-06
4.96428e-08
-2.46092e-06
4.74979e-08
-2.47968e-06
4.5278e-08
-2.49731e-06
4.2984e-08
-2.51378e-06
4.0617e-08
-2.52906e-06
3.81777e-08
-2.54313e-06
3.56676e-08
-2.55595e-06
3.30876e-08
-2.56749e-06
3.04393e-08
-2.57773e-06
2.77236e-08
-2.58664e-06
2.49414e-08
-2.5942e-06
2.20929e-08
-2.60039e-06
1.91781e-08
-2.60521e-06
1.6198e-08
-2.60863e-06
1.3155e-08
-2.61069e-06
1.00517e-08
-2.6114e-06
6.89096e-09
-2.61081e-06
3.68121e-09
-2.60903e-06
4.48098e-10
-2.60616e-06
-2.76238e-09
-2.60205e-06
-5.91656e-09
-2.59646e-06
-9.04102e-09
-2.58936e-06
-1.2172e-08
-2.58072e-06
-1.53141e-08
-2.57054e-06
-1.84709e-08
-2.55881e-06
-2.16406e-08
-2.54553e-06
-2.48203e-08
-2.53067e-06
-2.80063e-08
-2.51426e-06
-3.1195e-08
-2.49628e-06
-3.43828e-08
-2.47674e-06
-3.75661e-08
-2.45565e-06
-4.07416e-08
-2.43302e-06
-4.39054e-08
-2.40884e-06
-4.70546e-08
-2.38313e-06
-5.0185e-08
-2.35591e-06
-5.32937e-08
-2.32718e-06
-5.63767e-08
-2.29696e-06
-5.94309e-08
-2.26527e-06
-6.24522e-08
-2.23212e-06
-6.54369e-08
-2.19754e-06
-6.83816e-08
-2.16155e-06
-7.1284e-08
-2.12418e-06
-7.41412e-08
-2.08545e-06
-7.69502e-08
-2.04539e-06
-7.97056e-08
-2.00402e-06
-8.24034e-08
-1.96137e-06
-8.50383e-08
-1.91748e-06
-8.76086e-08
-1.87239e-06
-9.01111e-08
-1.82612e-06
-9.25462e-08
-1.77871e-06
-9.49112e-08
-1.73021e-06
-9.72064e-08
-1.68063e-06
-9.94284e-08
-1.63004e-06
-1.0157e-07
-1.57846e-06
-1.03622e-07
-1.52595e-06
-1.05589e-07
-1.47254e-06
-1.07476e-07
-1.41828e-06
-1.09276e-07
-1.36322e-06
-1.10983e-07
-1.3074e-06
-1.12597e-07
-1.25088e-06
-1.14118e-07
-1.1937e-06
-1.15546e-07
-1.1359e-06
-1.16881e-07
-1.07755e-06
-1.18122e-07
-1.01869e-06
-1.19271e-07
-9.59373e-07
-1.20327e-07
-8.99637e-07
-1.2129e-07
-8.39534e-07
-1.22162e-07
-7.79112e-07
-1.22942e-07
-7.18418e-07
-1.23632e-07
-6.57499e-07
-1.24233e-07
-5.96399e-07
-1.24747e-07
-5.35163e-07
-1.25177e-07
-4.73836e-07
-1.25524e-07
-4.1246e-07
-1.25792e-07
-3.51076e-07
-1.25983e-07
-2.89722e-07
-1.26099e-07
-2.2844e-07
-1.26142e-07
-1.67265e-07
-1.26116e-07
-1.06233e-07
-1.26023e-07
-4.53799e-08
-1.25864e-07
1.52674e-08
-1.25639e-07
7.56872e-08
-1.25341e-07
1.35863e-07
-1.2497e-07
1.95755e-07
-1.24482e-07
2.55285e-07
-1.23758e-07
3.1441e-07
-1.22824e-07
3.73138e-07
-1.21827e-07
4.3148e-07
-1.20833e-07
4.89428e-07
-1.1985e-07
5.46972e-07
-1.18869e-07
6.04095e-07
-1.17868e-07
6.60765e-07
-1.16814e-07
7.16926e-07
-1.15656e-07
7.72476e-07
-1.14306e-07
8.27251e-07
-1.12612e-07
8.80908e-07
-1.10287e-07
9.3301e-07
-1.0679e-07
9.81984e-07
-1.00871e-07
1.02792e-06
-9.01583e-08
1.06203e-06
-6.7832e-08
-1.65259e-08
1.10297e-06
-7.07565e-10
-1.99717e-08
-5.20343e-09
-1.10313e-08
-1.30688e-08
-1.90393e-10
-2.28662e-08
9.71348e-09
-3.4179e-08
1.87567e-08
-4.68213e-08
2.69637e-08
-6.08333e-08
3.43043e-08
-7.63096e-08
4.07632e-08
-9.33068e-08
4.63875e-08
-1.11816e-07
5.12845e-08
-1.31776e-07
5.5596e-08
-1.531e-07
5.9464e-08
-1.75702e-07
6.30148e-08
-1.99507e-07
6.63434e-08
-2.24459e-07
6.95196e-08
-2.50518e-07
7.25885e-08
-2.77662e-07
7.5581e-08
-3.05879e-07
7.85153e-08
-3.35165e-07
8.14057e-08
-3.65527e-07
8.42617e-08
-3.96978e-07
8.70923e-08
-4.29541e-07
8.9908e-08
-4.63243e-07
9.27201e-08
-4.98118e-07
9.55446e-08
-5.34206e-07
9.83981e-08
-5.71532e-07
1.013e-07
-6.10091e-07
1.04265e-07
-6.49797e-07
1.073e-07
-6.90451e-07
1.10389e-07
-7.31703e-07
1.13494e-07
-7.73068e-07
1.16518e-07
-8.14111e-07
1.19288e-07
-8.55e-07
1.21519e-07
-8.96152e-07
1.22738e-07
-9.37365e-07
1.23312e-07
-9.77953e-07
1.24156e-07
-1.01745e-06
1.25029e-07
-1.05588e-06
1.2571e-07
-1.09343e-06
1.26018e-07
-1.1303e-06
1.25887e-07
-1.16678e-06
1.2542e-07
-1.20333e-06
1.24529e-07
-1.24025e-06
1.23247e-07
-1.27719e-06
1.22194e-07
-1.31358e-06
1.21424e-07
-1.34936e-06
1.20642e-07
-1.38473e-06
1.19855e-07
-1.41977e-06
1.19065e-07
-1.45448e-06
1.18266e-07
-1.4889e-06
1.17451e-07
-1.52303e-06
1.16614e-07
-1.55688e-06
1.15753e-07
-1.59045e-06
1.14864e-07
-1.62374e-06
1.13944e-07
-1.65674e-06
1.12991e-07
-1.68945e-06
1.11999e-07
-1.72183e-06
1.10964e-07
-1.75389e-06
1.09882e-07
-1.7856e-06
1.08746e-07
-1.81695e-06
1.07553e-07
-1.8479e-06
1.06296e-07
-1.87844e-06
1.0497e-07
-1.90856e-06
1.0357e-07
-1.93821e-06
1.02091e-07
-1.96737e-06
1.00529e-07
-1.99602e-06
9.88775e-08
-2.02412e-06
9.71343e-08
-2.05164e-06
9.52955e-08
-2.07856e-06
9.33581e-08
-2.10484e-06
9.13188e-08
-2.13045e-06
8.91755e-08
-2.15535e-06
8.69266e-08
-2.17951e-06
8.457e-08
-2.20291e-06
8.21044e-08
-2.2255e-06
7.95297e-08
-2.24725e-06
7.68452e-08
-2.26813e-06
7.40509e-08
-2.2881e-06
7.11471e-08
-2.30713e-06
6.81347e-08
-2.32518e-06
6.50144e-08
-2.34223e-06
6.17876e-08
-2.35825e-06
5.84557e-08
-2.37318e-06
5.50204e-08
-2.38703e-06
5.14837e-08
-2.39974e-06
4.78478e-08
-2.41129e-06
4.41148e-08
-2.42165e-06
4.02877e-08
-2.4308e-06
3.6369e-08
-2.43872e-06
3.23616e-08
-2.44538e-06
2.82689e-08
-2.45078e-06
2.40942e-08
-2.45489e-06
1.98429e-08
-2.45771e-06
1.55226e-08
-2.45925e-06
1.11433e-08
-2.45949e-06
6.71854e-09
-2.45846e-06
2.26635e-09
-2.45613e-06
-2.19297e-09
-2.45246e-06
-6.65263e-09
-2.44738e-06
-1.1138e-08
-2.44086e-06
-1.56669e-08
-2.43288e-06
-2.0231e-08
-2.42341e-06
-2.48244e-08
-2.41244e-06
-2.94424e-08
-2.39998e-06
-3.40795e-08
-2.386e-06
-3.87306e-08
-2.37051e-06
-4.33894e-08
-2.35351e-06
-4.80508e-08
-2.335e-06
-5.27088e-08
-2.31497e-06
-5.73585e-08
-2.29344e-06
-6.19942e-08
-2.27041e-06
-6.66112e-08
-2.24588e-06
-7.12035e-08
-2.21987e-06
-7.57665e-08
-2.19239e-06
-8.02944e-08
-2.16344e-06
-8.47826e-08
-2.13305e-06
-8.92251e-08
-2.10123e-06
-9.3617e-08
-2.068e-06
-9.79525e-08
-2.03337e-06
-1.02227e-07
-1.99738e-06
-1.06436e-07
-1.96004e-06
-1.10575e-07
-1.92139e-06
-1.1464e-07
-1.88144e-06
-1.18623e-07
-1.84023e-06
-1.22517e-07
-1.79777e-06
-1.26318e-07
-1.75411e-06
-1.30019e-07
-1.70926e-06
-1.33619e-07
-1.66329e-06
-1.37114e-07
-1.6162e-06
-1.40502e-07
-1.56804e-06
-1.43783e-07
-1.51886e-06
-1.46951e-07
-1.46868e-06
-1.49998e-07
-1.41755e-06
-1.52913e-07
-1.3655e-06
-1.557e-07
-1.31259e-06
-1.5836e-07
-1.25885e-06
-1.60888e-07
-1.20433e-06
-1.63276e-07
-1.14908e-06
-1.65523e-07
-1.09315e-06
-1.67628e-07
-1.03657e-06
-1.6959e-07
-9.79407e-07
-1.71409e-07
-9.21703e-07
-1.73086e-07
-8.63506e-07
-1.7462e-07
-8.04863e-07
-1.76011e-07
-7.4582e-07
-1.7726e-07
-6.86425e-07
-1.78367e-07
-6.26725e-07
-1.79331e-07
-5.66766e-07
-1.80157e-07
-5.06593e-07
-1.80845e-07
-4.46252e-07
-1.81398e-07
-3.85786e-07
-1.81818e-07
-3.25239e-07
-1.82109e-07
-2.64651e-07
-1.82273e-07
-2.04064e-07
-1.82315e-07
-1.43517e-07
-1.82239e-07
-8.30469e-08
-1.82048e-07
-2.26882e-08
-1.81745e-07
3.75259e-08
-1.81339e-07
9.75614e-08
-1.80831e-07
1.57384e-07
-1.80222e-07
2.16963e-07
-1.79513e-07
2.76278e-07
-1.78707e-07
3.35317e-07
-1.77806e-07
3.94055e-07
-1.76814e-07
4.52467e-07
-1.75734e-07
5.10539e-07
-1.74592e-07
5.68258e-07
-1.73426e-07
6.25606e-07
-1.72247e-07
6.82567e-07
-1.71044e-07
7.3912e-07
-1.69791e-07
7.9523e-07
-1.68445e-07
8.50842e-07
-1.66936e-07
9.0586e-07
-1.6514e-07
9.60133e-07
-1.62848e-07
1.01337e-06
-1.59677e-07
1.06524e-06
-1.54921e-07
1.11467e-06
-1.47142e-07
1.16219e-06
-1.33649e-07
1.20345e-06
-1.08425e-07
-5.74693e-08
1.25316e-06
-9.542e-09
-1.28548e-08
-1.95002e-08
3.67364e-10
-3.15974e-08
1.26079e-08
-4.5139e-08
2.3373e-08
-5.96109e-08
3.31739e-08
-7.48474e-08
4.21731e-08
-9.09445e-08
5.04066e-08
-1.08044e-07
5.78818e-08
-1.26262e-07
6.46295e-08
-1.45668e-07
7.07167e-08
-1.66289e-07
7.62401e-08
-1.88113e-07
8.13077e-08
-2.11109e-07
8.60249e-08
-2.35237e-07
9.04795e-08
-2.60459e-07
9.47429e-08
-2.86745e-07
9.88664e-08
-3.14068e-07
1.02887e-07
-3.4241e-07
1.06829e-07
-3.71755e-07
1.1071e-07
-4.02089e-07
1.14539e-07
-4.33392e-07
1.18324e-07
-4.65642e-07
1.22069e-07
-4.98804e-07
1.25776e-07
-5.32829e-07
1.29446e-07
-5.67643e-07
1.33075e-07
-6.03143e-07
1.36654e-07
-6.39186e-07
1.40163e-07
-6.75574e-07
1.43571e-07
-7.12067e-07
1.46821e-07
-7.48404e-07
1.49838e-07
-7.84367e-07
1.52513e-07
-8.19869e-07
1.54718e-07
-8.55021e-07
1.56325e-07
-8.90022e-07
1.57276e-07
-9.24898e-07
1.57747e-07
-9.59459e-07
1.58062e-07
-9.93524e-07
1.58271e-07
-1.02706e-06
1.58329e-07
-1.06013e-06
1.58178e-07
-1.09285e-06
1.57797e-07
-1.12531e-06
1.57203e-07
-1.15764e-06
1.5638e-07
-1.18996e-06
1.55367e-07
-1.22217e-06
1.54346e-07
-1.25416e-06
1.53376e-07
-1.28591e-06
1.52402e-07
-1.31747e-06
1.51421e-07
-1.34885e-06
1.50435e-07
-1.38004e-06
1.49441e-07
-1.41105e-06
1.48434e-07
-1.44187e-06
1.47408e-07
-1.47251e-06
1.46355e-07
-1.50295e-06
1.45271e-07
-1.5332e-06
1.44148e-07
-1.56322e-06
1.42982e-07
-1.59301e-06
1.41763e-07
-1.62256e-06
1.40486e-07
-1.65185e-06
1.39144e-07
-1.68087e-06
1.3773e-07
-1.70957e-06
1.36236e-07
-1.73795e-06
1.34657e-07
-1.76599e-06
1.32984e-07
-1.79364e-06
1.31212e-07
-1.8209e-06
1.29334e-07
-1.84773e-06
1.27345e-07
-1.8741e-06
1.25239e-07
-1.89998e-06
1.23011e-07
-1.92534e-06
1.20656e-07
-1.95016e-06
1.18171e-07
-1.97439e-06
1.15553e-07
-1.998e-06
1.12797e-07
-2.02096e-06
1.09903e-07
-2.04325e-06
1.06867e-07
-2.06482e-06
1.03688e-07
-2.08563e-06
1.00366e-07
-2.10567e-06
9.69008e-08
-2.12488e-06
9.32912e-08
-2.14325e-06
8.95382e-08
-2.16072e-06
8.56426e-08
-2.17728e-06
8.16064e-08
-2.19289e-06
7.74309e-08
-2.20752e-06
7.31182e-08
-2.22113e-06
6.86708e-08
-2.23369e-06
6.40917e-08
-2.24518e-06
5.93841e-08
-2.25557e-06
5.45515e-08
-2.26483e-06
4.95979e-08
-2.27294e-06
4.45279e-08
-2.27986e-06
3.93461e-08
-2.28559e-06
3.40578e-08
-2.29011e-06
2.86691e-08
-2.29339e-06
2.31871e-08
-2.29543e-06
1.76208e-08
-2.29622e-06
1.19804e-08
-2.29573e-06
6.27756e-09
-2.29394e-06
5.25511e-10
-2.29083e-06
-5.26414e-09
-2.28636e-06
-1.10901e-08
-2.2805e-06
-1.6965e-08
-2.27324e-06
-2.28963e-08
-2.26456e-06
-2.8878e-08
-2.25444e-06
-3.49022e-08
-2.24288e-06
-4.09611e-08
-2.22987e-06
-4.70466e-08
-2.21541e-06
-5.31512e-08
-2.19949e-06
-5.9267e-08
-2.18211e-06
-6.53867e-08
-2.16326e-06
-7.15027e-08
-2.14296e-06
-7.76082e-08
-2.1212e-06
-8.36959e-08
-2.098e-06
-8.9759e-08
-2.07335e-06
-9.57903e-08
-2.04726e-06
-1.01783e-07
-2.01976e-06
-1.0773e-07
-1.99084e-06
-1.13625e-07
-1.96053e-06
-1.1946e-07
-1.92884e-06