/*--------------------------------*- C++ -*----------------------------------*\
  =========                 |
  \\      /  F ield         | OpenFOAM: The Open Source CFD Toolbox
   \\    /   O peration     | Website:  https://openfoam.org
    \\  /    A nd           | Version:  7
     \\/     M anipulation  |
\*---------------------------------------------------------------------------*/
FoamFile
{
    version     2.0;
    format      ascii;
    class       volScalarField;
    location    "0.005";
    object      T;
}
// * * * * * * * * * * * * * * * * * * * * * * * * * * * * * * * * * * * * * //

dimensions      [0 0 0 1 0 0 0];

internalField   nonuniform List<scalar> 
12225
(
1.00689
1.0041
1.00171
1.00089
1.00043
1.00012
0.999946
0.999861
0.999796
0.999714
0.999587
0.999342
0.998839
0.997732
0.995208
0.989362
0.975148
0.939857
0.995136
0.994811
0.996744
0.998333
0.999123
0.999456
0.999626
0.999728
0.99977
0.999751
0.999659
0.999442
0.998961
0.997895
0.995464
0.989888
0.976758
0.946067
0.999619
1.00005
1.00023
1.00028
1.0002
1.00007
0.999973
0.999917
0.999865
0.999791
0.999665
0.999432
0.998954
0.997929
0.995643
0.990514
0.978962
0.954198
1.00032
1.00017
0.999777
0.999747
0.999815
0.999827
0.99982
0.999816
0.999798
0.999747
0.999641
0.999427
0.998982
0.998029
0.995941
0.991385
0.981632
0.962281
1.00014
0.999947
0.999657
0.9997
0.999815
0.999849
0.999845
0.999837
0.999816
0.999765
0.999661
0.999455
0.999036
0.998159
0.996291
0.992357
0.984364
0.969535
1.00002
0.999951
0.999768
0.999772
0.999843
0.999864
0.999855
0.999843
0.99982
0.999769
0.999669
0.999474
0.999086
0.998294
0.99666
0.993352
0.986957
0.975735
0.999995
1
0.999864
0.999821
0.999854
0.999869
0.999862
0.999849
0.999825
0.999776
0.99968
0.999497
0.999141
0.998438
0.997038
0.994317
0.989297
0.980879
0.999995
1.00002
0.999917
0.999857
0.999869
0.99988
0.999872
0.999858
0.999834
0.999785
0.999694
0.999522
0.9992
0.998585
0.997406
0.995207
0.991325
0.985051
0.999995
1.00002
0.999951
0.999893
0.99989
0.999894
0.999886
0.99987
0.999844
0.999796
0.999708
0.999549
0.999259
0.998727
0.997748
0.995997
0.993025
0.988371
0.999995
1.00002
0.999975
0.999925
0.999913
0.99991
0.9999
0.999883
0.999856
0.999808
0.999724
0.999576
0.999317
0.99886
0.998054
0.996671
0.994411
0.990966
0.999996
1.00002
0.999992
0.999952
0.999934
0.999927
0.999915
0.999896
0.999868
0.999821
0.99974
0.999604
0.999373
0.998981
0.998318
0.997229
0.99551
0.992958
0.999997
1.00001
1
0.99997
0.999951
0.999941
0.999928
0.999909
0.99988
0.999833
0.999755
0.999628
0.999419
0.999077
0.998521
0.997639
0.996291
0.994332
0.999997
1.00001
1.00001
0.999983
0.999965
0.999954
0.999941
0.999921
0.999891
0.999844
0.999771
0.999651
0.99946
0.99916
0.99869
0.997969
0.996901
0.995385
0.999997
1.00001
1.00001
0.999992
0.999978
0.999966
0.999953
0.999934
0.999904
0.999858
0.999787
0.999675
0.999502
0.999238
0.998842
0.998257
0.99742
0.996261
0.999998
1.00001
1.00001
0.999998
0.999987
0.999977
0.999965
0.999947
0.999917
0.999871
0.999803
0.999698
0.999541
0.999308
0.99897
0.99849
0.997827
0.996935
0.999998
1.00001
1.00001
1
0.999994
0.999986
0.999976
0.999958
0.999929
0.999885
0.999818
0.999719
0.999574
0.999364
0.999068
0.998662
0.998119
0.997408
0.999998
1.00001
1.00001
1.00001
0.999998
0.999992
0.999983
0.999966
0.999938
0.999895
0.99983
0.999734
0.999597
0.999404
0.999136
0.998777
0.998307
0.997706
0.999999
1.00001
1.00001
1.00001
1
0.999994
0.999985
0.999968
0.999941
0.999901
0.999839
0.999747
0.999612
0.999426
0.999175
0.998843
0.998413
0.997868
1
1.00001
1.00001
1.00001
1
0.999994
0.999985
0.99997
0.999945
0.999904
0.999841
0.999749
0.999618
0.999436
0.999192
0.99887
0.998456
0.997937
0.999999
1.00001
1.00001
1.00001
1
0.999994
0.999983
0.999966
0.99994
0.999898
0.999836
0.999744
0.999612
0.99943
0.999187
0.998867
0.998456
0.997943
0.999997
1.00001
1.00001
1.00001
1
0.99999
0.999977
0.999959
0.999931
0.999889
0.999825
0.999732
0.999599
0.999418
0.999173
0.998852
0.998442
0.997927
0.999997
1.00001
1.00002
1.00001
0.999992
0.999981
0.999966
0.999945
0.999914
0.999871
0.999809
0.999717
0.999584
0.9994
0.999155
0.998833
0.99842
0.997901
0.999996
1.00003
1.00003
0.999994
0.999969
0.999958
0.999945
0.999926
0.999897
0.999855
0.999792
0.999699
0.999566
0.999382
0.999134
0.998808
0.998392
0.99787
0.999989
1.00005
1.00004
0.999981
0.999944
0.99993
0.999917
0.999899
0.999874
0.999836
0.999774
0.999682
0.999548
0.999362
0.999113
0.998785
0.998365
0.997836
0.99999
1.00004
0.999992
0.999935
0.999928
0.999921
0.999901
0.999878
0.999852
0.999813
0.999753
0.999661
0.999528
0.999341
0.999088
0.998757
0.998332
0.997799
1.00013
1.00009
0.999824
0.999754
0.999833
0.999888
0.999893
0.999881
0.999859
0.99982
0.999758
0.999664
0.999528
0.999337
0.999081
0.998744
0.998312
0.99777
1.0005
1.00053
0.999951
0.999664
0.999663
0.99971
0.999738
0.999758
0.999763
0.999745
0.999698
0.999614
0.999486
0.9993
0.999047
0.998709
0.998274
0.997728
1.00004
1.0008
1.00096
1.00079
1.00056
1.00033
1.00016
1.00006
0.999974
0.999896
0.999805
0.99969
0.999539
0.999335
0.999065
0.998713
0.998263
0.997705
0.994604
0.993791
0.995838
0.99766
0.998659
0.999136
0.999399
0.999562
0.999651
0.999681
0.999662
0.999596
0.999478
0.999297
0.999043
0.9987
0.998255
0.997686
1.00635
1.00419
1.00178
1.00096
1.00054
1.00022
1.00004
0.999945
0.999881
0.999813
0.999731
0.999622
0.999474
0.999272
0.999001
0.998647
0.998194
0.997634
0.000835571
0.000832655
0.000826816
0.000818118
0.00080665
0.000792527
0.000775888
0.000756909
0.000735784
0.000712724
0.000687952
0.000661703
0.000634216
0.000605736
0.000576509
0.000546777
0.000516778
0.000486738
0.000456874
0.000427387
0.000398459
0.000370256
0.000342923
0.000316584
0.000291343
0.00026728
0.000244457
0.000222915
0.000202678
0.000183751
0.000166129
0.000149796
0.000134731
0.000120913
0.000108245
9.66449e-05
8.60823e-05
7.64907e-05
6.78108e-05
5.99806e-05
5.29351e-05
4.66186e-05
4.09726e-05
3.59312e-05
3.14427e-05
2.74577e-05
2.39257e-05
2.0803e-05
1.80483e-05
1.5624e-05
1.34952e-05
1.16303e-05
1.00003e-05
8.57901e-06
7.34257e-06
6.26953e-06
5.34054e-06
4.53823e-06
3.84704e-06
3.25307e-06
2.74394e-06
2.30864e-06
1.93744e-06
1.62173e-06
1.35392e-06
1.12735e-06
9.36196e-07
7.75359e-07
6.40405e-07
5.27485e-07
4.33267e-07
3.54878e-07
2.89847e-07
2.36052e-07
1.91684e-07
1.55199e-07
1.25286e-07
1.00836e-07
8.09108e-08
6.47244e-08
5.1616e-08
4.10337e-08
3.25178e-08
2.5687e-08
2.02256e-08
1.58735e-08
1.24168e-08
9.68059e-09
7.52198e-09
5.82489e-09
4.49526e-09
3.45718e-09
2.64956e-09
2.02347e-09
1.53986e-09
1.16764e-09
8.822e-10
6.64092e-10
4.98045e-10
3.72095e-10
2.7692e-10
2.05278e-10
1.51561e-10
1.11447e-10
8.16123e-11
5.95149e-11
4.32167e-11
3.12471e-11
2.24943e-11
1.61218e-11
1.15029e-11
8.17003e-12
5.77616e-12
4.06465e-12
2.84675e-12
1.98422e-12
1.37631e-12
9.49947e-13
6.524e-13
4.45791e-13
3.03054e-13
2.04952e-13
1.37878e-13
9.22605e-14
6.14022e-14
4.06413e-14
2.67507e-14
1.75089e-14
1.13948e-14
7.37307e-15
4.74298e-15
3.03306e-15
1.92799e-15
1.21812e-15
7.64908e-16
4.7734e-16
2.96017e-16
1.82406e-16
1.11677e-16
6.793e-17
4.1049e-17
2.46408e-17
1.46923e-17
8.70107e-18
5.11775e-18
2.98938e-18
1.734e-18
9.9874e-19
5.71181e-19
3.24327e-19
1.82833e-19
1.02323e-19
5.68472e-20
3.13508e-20
1.71623e-20
9.32505e-21
5.02916e-21
2.69195e-21
1.43014e-21
7.54066e-22
3.94559e-22
2.04921e-22
1.05611e-22
5.39959e-23
2.74071e-23
1.38048e-23
6.89892e-24
3.42044e-24
1.68231e-24
8.20805e-25
3.97255e-25
1.90713e-25
9.08149e-26
4.28922e-26
2.00914e-26
9.33249e-27
4.29798e-27
1.96155e-27
8.87164e-28
3.97291e-28
0.000989873
0.000986209
0.000978983
0.0009683
0.000954311
0.000937185
0.00091712
0.000894329
0.00086905
0.000841534
0.000812049
0.000780871
0.000748286
0.000714582
0.000680046
0.00064496
0.000609601
0.000574233
0.000539104
0.000504446
0.00047047
0.000437365
0.000405298
0.000374408
0.000344814
0.000316607
0.000289856
0.000264607
0.000240885
0.000218696
0.000198026
0.000178847
0.00016112
0.000144765
0.000129743
0.000116029
0.000103539
9.21966e-05
8.19237e-05
7.26426e-05
6.42802e-05
5.67614e-05
5.00137e-05
4.39766e-05
3.85877e-05
3.37862e-05
2.9519e-05
2.57353e-05
2.23881e-05
1.94336e-05
1.68316e-05
1.45454e-05
1.25411e-05
1.07882e-05
9.25875e-06
7.92737e-06
6.77124e-06
5.76975e-06
4.90435e-06
4.15843e-06
3.51713e-06
2.96719e-06
2.49682e-06
2.09557e-06
1.75419e-06
1.46453e-06
1.21942e-06
1.01259e-06
8.38533e-07
6.92473e-07
5.70253e-07
4.68275e-07
3.83434e-07
3.13055e-07
2.54846e-07
2.06847e-07
1.67386e-07
1.35043e-07
1.08616e-07
8.70907e-08
6.96127e-08
5.54664e-08
4.40536e-08
3.4876e-08
2.75202e-08
2.16442e-08
1.6966e-08
1.32542e-08
1.03192e-08
8.00653e-09
6.19062e-09
4.76981e-09
3.66212e-09
2.80166e-09
2.13567e-09
1.62209e-09
1.22751e-09
9.25456e-10
6.95078e-10
5.20027e-10
3.87531e-10
2.87638e-10
2.12628e-10
1.56532e-10
1.14754e-10
8.37702e-11
6.08896e-11
4.40659e-11
3.17499e-11
2.27738e-11
1.62613e-11
1.15577e-11
8.17641e-12
5.75701e-12
4.0341e-12
2.81309e-12
1.95201e-12
1.34776e-12
9.25867e-13
6.32792e-13
4.3025e-13
2.91004e-13
1.95776e-13
1.31001e-13
8.71791e-14
5.76951e-14
3.79687e-14
2.48452e-14
1.61644e-14
1.04556e-14
6.72316e-15
4.29736e-15
2.73024e-15
1.724e-15
1.08189e-15
6.74699e-16
4.18104e-16
2.57437e-16
1.57485e-16
9.571e-17
5.77831e-17
3.46528e-17
2.06413e-17
1.22114e-17
7.17466e-18
4.18617e-18
2.42537e-18
1.39529e-18
7.96989e-19
4.51975e-19
2.54462e-19
1.42223e-19
7.89081e-20
4.34575e-20
2.37571e-20
1.28898e-20
6.94187e-21
3.71034e-21
1.96833e-21
1.03632e-21
5.41417e-22
2.80797e-22
1.44512e-22
7.37903e-23
3.73881e-23
1.87957e-23
9.3743e-24
4.63818e-24
2.2765e-24
1.10838e-24
5.35297e-25
2.56435e-25
1.21848e-25
5.74245e-26
2.68401e-26
1.244e-26
5.71662e-27
2.60348e-27
1.1749e-27
5.2491e-28
0.00132082
0.00131537
0.0013051
0.0012902
0.00127088
0.00124739
0.00122003
0.00118912
0.00115499
0.00111798
0.00107846
0.0010368
0.000993369
0.000948545
0.000902705
0.000856218
0.000809442
0.000762718
0.000716366
0.000670683
0.000625938
0.000582372
0.000540192
0.000499576
0.000460668
0.000423581
0.000388399
0.000355175
0.000323938
0.000294693
0.000267423
0.000242097
0.000218665
0.000197057
0.000177191
0.000158983
0.000142342
0.000127177
0.000113395
0.000100902
8.96056e-05
7.94138e-05
7.02381e-05
6.1994e-05
5.46029e-05
4.79915e-05
4.20912e-05
3.68373e-05
3.21693e-05
2.80313e-05
2.43713e-05
2.11415e-05
1.82978e-05
1.58001e-05
1.36113e-05
1.16978e-05
1.00292e-05
8.57764e-06
7.31806e-06
6.22784e-06
5.28663e-06
4.47617e-06
3.78015e-06
3.18399e-06
2.67474e-06
2.24092e-06
1.87237e-06
1.56014e-06
1.29637e-06
1.07418e-06
8.8754e-07
7.31227e-07
6.00695e-07
4.92016e-07
4.01803e-07
3.27145e-07
2.6555e-07
2.1489e-07
1.73354e-07
1.39406e-07
1.11751e-07
8.92933e-08
7.1117e-08
5.64545e-08
4.46662e-08
3.52208e-08
2.76785e-08
2.16768e-08
1.69176e-08
1.31572e-08
1.01965e-08
7.87391e-09
6.0585e-09
4.64475e-09
3.54788e-09
2.70004e-09
2.04716e-09
1.54626e-09
1.16338e-09
8.71863e-10
6.5077e-10
4.83764e-10
3.58131e-10
2.64014e-10
1.93804e-10
1.41652e-10
1.03083e-10
7.4683e-11
5.38649e-11
3.86734e-11
2.76385e-11
1.966e-11
1.39185e-11
9.8065e-12
6.87574e-12
4.79712e-12
3.33021e-12
2.30019e-12
1.58063e-12
1.08055e-12
7.34808e-13
4.97038e-13
3.34394e-13
2.23744e-13
1.48879e-13
9.85085e-14
6.48103e-14
4.23952e-14
2.75715e-14
1.78257e-14
1.14562e-14
7.31827e-15
4.6464e-15
2.93181e-15
1.83839e-15
1.14549e-15
7.09202e-16
4.36248e-16
2.66593e-16
1.61842e-16
9.75974e-17
5.84595e-17
3.47782e-17
2.05478e-17
1.20563e-17
7.0246e-18
4.06398e-18
2.33446e-18
1.3314e-18
7.53853e-19
4.23732e-19
2.36443e-19
1.30962e-19
7.20016e-20
3.92937e-20
2.12808e-20
1.14409e-20
6.10376e-21
3.2322e-21
1.69882e-21
8.86011e-22
4.58536e-22
2.35453e-22
1.19949e-22
6.06243e-23
3.03975e-23
1.512e-23
7.46062e-24
3.65167e-24
1.77294e-24
8.53828e-25
4.0786e-25
1.93242e-25
9.08072e-26
4.23193e-26
1.95571e-26
8.9609e-27
4.06936e-27
1.83129e-27
8.15903e-28
0.00187699
0.00186852
0.00185318
0.00183126
0.00180308
0.00176905
0.00172961
0.00168522
0.00163638
0.00158358
0.00152736
0.00146822
0.00140671
0.00134335
0.00127867
0.00121318
0.00114738
0.00108172
0.00101666
0.000952591
0.000889884
0.000828859
0.000769798
0.000712936
0.000658463
0.000606528
0.000557239
0.000510664
0.000466837
0.000425761
0.000387409
0.000351731
0.00031865
0.000288072
0.000259886
0.000233979
0.000210227
0.000188507
0.000168693
0.000150663
0.000134292
0.000119461
0.000106053
9.39585e-05
8.30712e-05
7.32918e-05
6.45268e-05
5.66882e-05
4.96934e-05
4.34656e-05
3.79332e-05
3.30298e-05
2.8694e-05
2.48692e-05
2.15031e-05
1.85481e-05
1.59602e-05
1.36995e-05
1.17296e-05
1.00177e-05
8.53365e-06
7.25064e-06
6.14438e-06
5.19308e-06
4.37729e-06
3.67963e-06
3.08466e-06
2.5787e-06
2.14967e-06
1.78692e-06
1.48111e-06
1.22406e-06
1.00864e-06
8.28658e-07
6.78737e-07
5.54244e-07
4.51189e-07
3.66148e-07
2.96198e-07
2.38846e-07
1.91976e-07
1.538e-07
1.22808e-07
9.77337e-08
7.75163e-08
6.12711e-08
4.82634e-08
3.78846e-08
2.96331e-08
2.30963e-08
1.79369e-08
1.38796e-08
1.07008e-08
8.21958e-09
6.29026e-09
4.79576e-09
3.6425e-09
2.75584e-09
2.07677e-09
1.55874e-09
1.16515e-09
8.6733e-10
6.42925e-10
4.7455e-10
3.4876e-10
2.55192e-10
1.85899e-10
1.34814e-10
9.73218e-11
6.99324e-11
5.00164e-11
3.56029e-11
2.52214e-11
1.77801e-11
1.24726e-11
8.70569e-12
6.04577e-12
4.17708e-12
2.87105e-12
1.96303e-12
1.33506e-12
9.03093e-13
6.07562e-13
4.06482e-13
2.70429e-13
1.78894e-13
1.17664e-13
7.69418e-14
5.00184e-14
3.2323e-14
2.07623e-14
1.32552e-14
8.41027e-15
5.30297e-15
3.32267e-15
2.06865e-15
1.27963e-15
7.86395e-16
4.80093e-16
2.91149e-16
1.75383e-16
1.04933e-16
6.23516e-17
3.67932e-17
2.15606e-17
1.25457e-17
7.2482e-18
4.1577e-18
2.36785e-18
1.33871e-18
7.51329e-19
4.18601e-19
2.31488e-19
1.27066e-19
6.92339e-20
3.7431e-20
2.00916e-20
1.07028e-20
5.65774e-21
2.96774e-21
1.54457e-21
7.97568e-22
4.08587e-22
2.07652e-22
1.04692e-22
5.23599e-23
2.59768e-23
1.27838e-23
6.24045e-24
3.02164e-24
1.45121e-24
6.91309e-25
3.26628e-25
1.53057e-25
7.11293e-26
3.27787e-26
1.49769e-26
6.78291e-27
3.04456e-27
1.35323e-27
0.0027369
0.00272378
0.00270069
0.00266812
0.00262651
0.00257646
0.00251863
0.00245371
0.00238244
0.00230555
0.00222381
0.00213798
0.00204883
0.00195713
0.00186364
0.00176908
0.00167417
0.00157955
0.00148585
0.00139364
0.00130342
0.00121565
0.0011307
0.0010489
0.000970515
0.00089574
0.000824719
0.000757541
0.000694247
0.000634834
0.000579258
0.000527442
0.00047928
0.00043464
0.000393375
0.000355327
0.000320332
0.00028822
0.000258821
0.000231966
0.000207489
0.000185226
0.00016502
0.00014672
0.00013018
0.000115263
0.000101839
8.97839e-05
7.89829e-05
6.93269e-05
6.07141e-05
5.30496e-05
4.62449e-05
4.0218e-05
3.48929e-05
3.01994e-05
2.6073e-05
2.24544e-05
1.92891e-05
1.65277e-05
1.41249e-05
1.20398e-05
1.02353e-05
8.67789e-06
7.33744e-06
6.18699e-06
5.2024e-06
4.36218e-06
3.64724e-06
3.04068e-06
2.52759e-06
2.09489e-06
1.73107e-06
1.42611e-06
1.17129e-06
9.59016e-07
7.82756e-07
6.36867e-07
5.16508e-07
4.17536e-07
3.36422e-07
2.70167e-07
2.16232e-07
1.72477e-07
1.37105e-07
1.08609e-07
8.57342e-08
6.74377e-08
5.28562e-08
4.1278e-08
3.21185e-08
2.48996e-08
1.92316e-08
1.47983e-08
1.1344e-08
8.66306e-09
6.59013e-09
4.99341e-09
3.76833e-09
2.83219e-09
2.11977e-09
1.57988e-09
1.17247e-09
8.66361e-10
6.37369e-10
4.66823e-10
3.40375e-10
2.47049e-10
1.78484e-10
1.28346e-10
9.18549e-11
6.54237e-11
4.63715e-11
3.27057e-11
2.29522e-11
1.6026e-11
1.11326e-11
7.69344e-12
5.28888e-12
3.61658e-12
2.45978e-12
1.66389e-12
1.11932e-12
7.48775e-13
4.98062e-13
3.29397e-13
2.16587e-13
1.41579e-13
9.20001e-14
5.9425e-14
3.81511e-14
2.43426e-14
1.54353e-14
9.72581e-15
6.08941e-15
3.78822e-15
2.34138e-15
1.43762e-15
8.7684e-16
5.31233e-16
3.19681e-16
1.91064e-16
1.13404e-16
6.68416e-17
3.91224e-17
2.27369e-17
1.31192e-17
7.51561e-18
4.27458e-18
2.41341e-18
1.35256e-18
7.52531e-19
4.1554e-19
2.27756e-19
1.23919e-19
6.69106e-20
3.58542e-20
1.90646e-20
1.00584e-20
5.2653e-21
2.73453e-21
1.40893e-21
7.20159e-22
3.65159e-22
1.8367e-22
9.16403e-23
4.53542e-23
2.2265e-23
1.08416e-23
5.2363e-24
2.50845e-24
1.19187e-24
5.61676e-25
2.62516e-25
1.21679e-25
5.59277e-26
2.54883e-26
1.15149e-26
5.15655e-27
2.28718e-27
0.00401884
0.00399872
0.00396422
0.003916
0.00385471
0.0037812
0.00369644
0.00360144
0.00349728
0.00338503
0.00326583
0.00314079
0.00301105
0.00287772
0.00274189
0.00260461
0.00246689
0.00232968
0.00219385
0.00206021
0.00192946
0.00180224
0.00167909
0.00156044
0.00144667
0.00133803
0.00123473
0.00113689
0.00104455
0.000957706
0.000876291
0.000800199
0.000729282
0.000663364
0.000602247
0.000545716
0.000493548
0.000445515
0.000401384
0.000360926
0.000323912
0.000290121
0.000259335
0.000231345
0.000205951
0.000182959
0.000162188
0.000143464
0.000126622
0.000111508
9.79743e-05
8.58848e-05
7.51107e-05
6.55321e-05
5.7037e-05
4.95216e-05
4.28898e-05
3.70527e-05
3.19284e-05
2.74417e-05
2.35239e-05
2.01119e-05
1.71487e-05
1.45824e-05
1.23661e-05
1.04575e-05
8.81849e-06
7.4152e-06
6.21724e-06
5.19759e-06
4.33233e-06
3.60031e-06
2.98293e-06
2.46384e-06
2.02878e-06
1.6653e-06
1.3626e-06
1.11134e-06
9.03465e-07
7.32058e-07
5.91198e-07
4.75835e-07
3.8168e-07
3.05103e-07
2.43041e-07
1.92923e-07
1.52596e-07
1.20265e-07
9.444e-08
7.38892e-08
5.75968e-08
4.47293e-08
3.46059e-08
2.66722e-08
2.04788e-08
1.5663e-08
1.19324e-08
9.05378e-09
6.8415e-09
5.14831e-09
3.85783e-09
2.87849e-09
2.13847e-09
1.58174e-09
1.16476e-09
8.53845e-10
6.23079e-10
4.52584e-10
3.27207e-10
2.35443e-10
1.68602e-10
1.20151e-10
8.52016e-11
6.01174e-11
4.22041e-11
2.9477e-11
2.04815e-11
1.41568e-11
9.7334e-12
6.65629e-12
4.52729e-12
3.06232e-12
2.05987e-12
1.37775e-12
9.16247e-13
6.05807e-13
3.98209e-13
2.60207e-13
1.69016e-13
1.09121e-13
7.00199e-14
4.46512e-14
2.8295e-14
1.78167e-14
1.11472e-14
6.92943e-15
4.27942e-15
2.62535e-15
1.5998e-15
9.68326e-16
5.82145e-16
3.4758e-16
2.06082e-16
1.21332e-16
7.09358e-17
4.11784e-17
2.37309e-17
1.35779e-17
7.71305e-18
4.3491e-18
2.4341e-18
1.35254e-18
7.45942e-19
4.08293e-19
2.21786e-19
1.19551e-19
6.39448e-20
3.39363e-20
1.78693e-20
9.33498e-21
4.83798e-21
2.48738e-21
1.26863e-21
6.41836e-22
3.22108e-22
1.60345e-22
7.91733e-23
3.8776e-23
1.88366e-23
9.07588e-24
4.33728e-24
2.0558e-24
9.66423e-25
4.50572e-25
2.0833e-25
9.55205e-26
4.34272e-26
1.95736e-26
8.74636e-27
3.8718e-27
0.00589154
0.00586123
0.00581024
0.00573954
0.00565001
0.00554286
0.0054195
0.00528139
0.00513008
0.00496714
0.00479422
0.00461294
0.00442494
0.00423184
0.00403522
0.00383658
0.00363736
0.00343892
0.00324248
0.00304919
0.00286005
0.00267593
0.00249758
0.00232562
0.00216056
0.00200276
0.00185248
0.0017099
0.00157507
0.00144799
0.00132857
0.00121666
0.00111207
0.00101457
0.000923884
0.000839736
0.000761825
0.000689842
0.000623477
0.000562417
0.000506354
0.000454983
0.000408007
0.000365138
0.000326099
0.000290623
0.000258452
0.000229343
0.000203062
0.000179389
0.000158113
0.000139037
0.000121974
0.000106749
9.31967e-05
8.11644e-05
7.05086e-05
6.10964e-05
5.28045e-05
4.55189e-05
3.9135e-05
3.35564e-05
2.8695e-05
2.44706e-05
2.08102e-05
1.76475e-05
1.49228e-05
1.25825e-05
1.05782e-05
8.8669e-06
7.41022e-06
6.1741e-06
5.12841e-06
4.24661e-06
3.50539e-06
2.88434e-06
2.36569e-06
1.93399e-06
1.57585e-06
1.27976e-06
1.03579e-06
8.35474e-07
6.71574e-07
5.37944e-07
4.29384e-07
3.41511e-07
2.70643e-07
2.137e-07
1.68117e-07
1.31767e-07
1.02889e-07
8.00367e-08
6.20226e-08
4.78784e-08
3.68168e-08
2.81996e-08
2.15124e-08
1.63438e-08
1.23654e-08
9.31596e-09
6.98855e-09
5.2199e-09
3.88177e-09
2.87387e-09
2.1181e-09
1.55399e-09
1.13486e-09
8.24908e-10
5.96775e-10
4.29667e-10
3.07852e-10
2.1949e-10
1.55711e-10
1.09909e-10
7.71831e-11
5.39216e-11
3.74739e-11
2.59058e-11
1.78131e-11
1.21822e-11
8.28567e-12
5.6042e-12
3.76922e-12
2.52063e-12
1.67592e-12
1.10778e-12
7.27926e-13
4.75482e-13
3.08718e-13
1.99222e-13
1.2777e-13
8.14316e-14
5.15699e-14
3.24507e-14
2.02889e-14
1.26029e-14
7.77708e-15
4.76713e-15
2.90231e-15
1.75511e-15
1.05416e-15
6.2879e-16
3.72425e-16
2.19031e-16
1.27918e-16
7.41748e-17
4.26954e-17
2.43998e-17
1.38444e-17
7.79743e-18
4.35893e-18
2.41854e-18
1.33179e-18
7.27765e-19
3.9464e-19
2.12343e-19
1.13365e-19
6.0049e-20
3.15568e-20
1.64522e-20
8.50909e-21
4.36569e-21
2.22187e-21
1.12168e-21
5.61689e-22
2.78987e-22
1.37445e-22
6.71621e-23
3.25509e-23
1.56473e-23
7.46017e-24
3.52764e-24
1.6544e-24
7.6949e-25
3.54941e-25
1.62359e-25
7.36436e-26
3.31187e-26
1.47679e-26
6.52472e-27
0.00859004
0.00854504
0.00847054
0.00836795
0.00823848
0.00808385
0.00790602
0.00770709
0.00748927
0.00725483
0.00700611
0.00674546
0.00647525
0.00619777
0.00591528
0.00562994
0.00534378
0.00505871
0.00477648
0.00449866
0.00422666
0.0039617
0.00370482
0.00345688
0.00321855
0.00299037
0.00277269
0.00256574
0.00236963
0.00218434
0.00200976
0.00184572
0.00169196
0.00154817
0.00141403
0.00128914
0.00117312
0.00106556
0.000966042
0.000874156
0.000789483
0.000711614
0.000640147
0.000574687
0.000514855
0.000460282
0.00041061
0.0003655
0.000324623
0.000287666
0.00025433
0.000224332
0.000197402
0.000173286
0.000151743
0.000132549
0.00011549
0.000100369
8.70011e-05
7.52155e-05
6.48531e-05
5.57673e-05
4.78232e-05
4.0897e-05
3.48758e-05
2.96565e-05
2.51456e-05
2.12587e-05
1.79195e-05
1.50597e-05
1.2618e-05
1.05397e-05
8.7764e-06
7.28515e-06
6.02804e-06
4.9718e-06
4.08726e-06
3.349e-06
2.73493e-06
2.22591e-06
1.80544e-06
1.45933e-06
1.17545e-06
9.43443e-07
7.54524e-07
6.01256e-07
4.77372e-07
3.77615e-07
2.97592e-07
2.33645e-07
1.82743e-07
1.42383e-07
1.10509e-07
8.54364e-08
6.57933e-08
5.04627e-08
3.85459e-08
2.93207e-08
2.22093e-08
1.67507e-08
1.2579e-08
9.4048e-09
7.00038e-09
5.18727e-09
3.82627e-09
2.80937e-09
2.05311e-09
1.49335e-09
1.08101e-09
7.7873e-10
5.58227e-10
3.98175e-10
2.82583e-10
1.99527e-10
1.40156e-10
9.79371e-11
6.80749e-11
4.7066e-11
3.23653e-11
2.21348e-11
1.50544e-11
1.01815e-11
6.84688e-12
4.57793e-12
3.04305e-12
2.01085e-12
1.3209e-12
8.62486e-13
5.59755e-13
3.61053e-13
2.31439e-13
1.4742e-13
9.33013e-14
5.86719e-14
3.66579e-14
2.27543e-14
1.40306e-14
8.59336e-15
5.22712e-15
3.15822e-15
1.89519e-15
1.12938e-15
6.68235e-16
3.9259e-16
2.29047e-16
1.32676e-16
7.62935e-17
4.35507e-17
2.46772e-17
1.38789e-17
7.74712e-18
4.29169e-18
2.35935e-18
1.28709e-18
6.96713e-19
3.742e-19
1.99406e-19
1.05423e-19
5.52942e-20
2.87707e-20
1.48502e-20
7.60346e-21
3.86165e-21
1.94539e-21
9.72074e-22
4.81776e-22
2.36829e-22
1.15468e-22
5.58374e-23
2.67803e-23
1.27389e-23
6.00991e-24
2.81202e-24
1.30489e-24
6.00514e-25
2.74061e-25
1.24031e-25
5.56575e-26
2.47671e-26
1.09213e-26
0.012435
0.012369
0.0122613
0.0121141
0.0119288
0.0117079
0.0114542
0.0111706
0.0108603
0.0105263
0.0101721
0.00980102
0.00941636
0.0090214
0.00861933
0.00821317
0.00780579
0.00739985
0.00699777
0.00660176
0.00621376
0.00583544
0.00546825
0.00511335
0.00477169
0.004444
0.00413078
0.00383235
0.00354886
0.00328034
0.00302666
0.00278759
0.00256283
0.00235199
0.00215463
0.00197029
0.00179845
0.00163858
0.00149014
0.00135259
0.00122537
0.00110795
0.000999781
0.000900342
0.000809113
0.000725594
0.000649297
0.000579749
0.000516495
0.000459097
0.000407134
0.000360203
0.00031792
0.000279919
0.000245851
0.000215389
0.000188221
0.000164055
0.000142617
0.000123652
0.00010692
9.22001e-05
7.92868e-05
6.79911e-05
5.81391e-05
4.95718e-05
4.21437e-05
3.5723e-05
3.019e-05
2.54368e-05
2.13662e-05
1.78913e-05
1.49344e-05
1.24265e-05
1.03065e-05
8.5202e-06
7.02025e-06
5.76502e-06
4.71821e-06
3.84826e-06
3.12784e-06
2.53338e-06
2.04463e-06
1.64427e-06
1.31751e-06
1.05182e-06
8.36606e-07
6.6294e-07
5.23342e-07
4.11565e-07
3.22418e-07
2.51601e-07
1.95571e-07
1.5142e-07
1.16766e-07
8.96745e-08
6.85816e-08
5.22287e-08
3.96048e-08
2.9902e-08
2.24771e-08
1.68209e-08
1.25315e-08
9.29345e-09
6.86041e-09
5.04075e-09
3.68627e-09
2.68288e-09
1.94317e-09
1.40052e-09
1.00441e-09
7.16714e-10
5.08827e-10
3.5938e-10
2.52504e-10
1.76476e-10
1.22684e-10
8.48299e-11
5.83368e-11
3.98968e-11
2.71334e-11
1.83489e-11
1.23374e-11
8.24732e-12
5.48079e-12
3.62059e-12
2.3775e-12
1.55182e-12
1.00671e-12
6.49047e-13
4.15833e-13
2.64725e-13
1.67438e-13
1.05225e-13
6.57001e-14
4.07527e-14
2.51099e-14
1.53669e-14
9.33894e-15
5.63792e-15
3.38028e-15
2.01255e-15
1.18974e-15
6.9832e-16
4.06944e-16
2.35429e-16
1.35206e-16
7.70748e-17
4.36101e-17
2.44902e-17
1.3649e-17
7.54901e-18
4.14317e-18
2.25635e-18
1.21924e-18
6.53672e-19
3.47694e-19
1.83477e-19
9.60495e-20
4.98794e-20
2.56947e-20
1.31295e-20
6.65464e-21
3.34548e-21
1.66817e-21
8.25018e-22
4.04687e-22
1.96881e-22
9.49972e-23
4.5461e-23
2.15767e-23
1.01565e-23
4.74147e-24
2.19527e-24
1.00799e-24
4.58998e-25
2.07272e-25
9.28133e-26
4.12172e-26
1.814e-26
0.017856
0.0177604
0.0176066
0.0173973
0.017135
0.0168228
0.0164647
0.0160647
0.015627
0.0151564
0.0146573
0.0141344
0.0135925
0.0130362
0.0124697
0.0118974
0.0113232
0.0107508
0.0101835
0.0096244
0.00907605
0.00854079
0.00802057
0.007517
0.00703137
0.00656468
0.00611763
0.00569069
0.0052841
0.00489792
0.00453203
0.00418619
0.00386001
0.00355304
0.00326474
0.00299452
0.00274173
0.00250571
0.00228578
0.00208122
0.00189134
0.00171542
0.00155276
0.00140267
0.00126445
0.00113744
0.00102098
0.000914425
0.000817153
0.00072856
0.000648061
0.000575091
0.000509108
0.000449593
0.000396047
0.000347996
0.00030499
0.000266603
0.000232432
0.000202097
0.000175243
0.000151539
0.000130674
0.000112364
9.63413e-05
8.23632e-05
7.02056e-05
5.96638e-05
5.05515e-05
4.26995e-05
3.59552e-05
3.01809e-05
2.52532e-05
2.10619e-05
1.75089e-05
1.45071e-05
1.19797e-05
9.85904e-06
8.08598e-06
6.60878e-06
5.38249e-06
4.36818e-06
3.53229e-06
2.84598e-06
2.28461e-06
1.82717e-06
1.45584e-06
1.15559e-06
9.13755e-07
7.19742e-07
5.64715e-07
4.41341e-07
3.43554e-07
2.66366e-07
2.05671e-07
1.58145e-07
1.21087e-07
9.23159e-08
7.00758e-08
5.296e-08
3.98468e-08
2.98458e-08
2.22533e-08
1.65161e-08
1.2201e-08
8.97082e-09
6.56439e-09
4.7803e-09
3.46409e-09
2.49787e-09
1.79213e-09
1.27928e-09
9.08501e-10
6.41837e-10
4.51057e-10
3.15295e-10
2.19214e-10
1.51588e-10
1.04249e-10
7.12947e-11
4.84835e-11
3.2783e-11
2.2039e-11
1.47296e-11
9.7861e-12
6.46257e-12
4.2423e-12
2.76797e-12
1.79492e-12
1.15669e-12
7.40696e-13
4.71281e-13
2.97896e-13
1.87093e-13
1.16743e-13
7.23643e-14
4.45552e-14
2.72468e-14
1.65477e-14
9.9807e-15
5.97796e-15
3.55531e-15
2.09942e-15
1.23082e-15
7.16361e-16
4.13892e-16
2.37373e-16
1.35125e-16
7.63437e-17
4.28076e-17
2.38206e-17
1.31536e-17
7.20729e-18
3.91844e-18
2.11371e-18
1.13123e-18
6.00625e-19
3.16366e-19
1.65307e-19
8.56823e-20
4.40528e-20
2.2466e-20
1.13641e-20
5.7015e-21
2.83714e-21
1.40024e-21
6.85402e-22
3.32742e-22
1.60208e-22
7.65017e-23
3.62301e-23
1.70167e-23
7.92663e-24
3.66189e-24
1.67772e-24
7.62303e-25
3.43499e-25
1.53494e-25
6.80278e-26
2.98817e-26
0.0254193
0.0252825
0.0250649
0.0247706
0.0244029
0.0239663
0.0234661
0.0229078
0.0222973
0.0216411
0.0209454
0.0202168
0.0194617
0.0186865
0.0178971
0.0170994
0.0162987
0.0155002
0.0147082
0.0139269
0.0131599
0.0124102
0.0116805
0.0109729
0.0102892
0.00963081
0.00899864
0.00839337
0.00781541
0.00726487
0.00674169
0.0062456
0.00577618
0.00533291
0.00491515
0.00452219
0.00415325
0.00380751
0.00348413
0.00318224
0.00290093
0.00263932
0.00239651
0.0021716
0.0019637
0.00177193
0.00159542
0.00143331
0.00128476
0.00114897
0.00102512
0.000912436
0.00081017
0.000717589
0.000633993
0.000558707
0.000491086
0.000430513
0.000376405
0.000328205
0.000285391
0.00024747
0.000213981
0.000184494
0.000158608
0.000135952
0.000116184
9.89906e-05
8.40827e-05
7.11981e-05
6.00981e-05
5.0567e-05
4.241e-05
3.54525e-05
2.95383e-05
2.45282e-05
2.02987e-05
1.67408e-05
1.37585e-05
1.12678e-05
9.19509e-06
7.47669e-06
6.05731e-06
4.88934e-06
3.93191e-06
3.15009e-06
2.51414e-06
1.99889e-06
1.58308e-06
1.24888e-06
9.81341e-07
7.68052e-07
5.98713e-07
4.64792e-07
3.5932e-07
2.76608e-07
2.12023e-07
1.61813e-07
1.22951e-07
9.30072e-08
7.00393e-08
5.25038e-08
3.91779e-08
2.90984e-08
2.15106e-08
1.58257e-08
1.15871e-08
8.44239e-09
6.12078e-09
4.41544e-09
3.16913e-09
2.26297e-09
1.60754e-09
1.13596e-09
7.98459e-10
5.58204e-10
3.8814e-10
2.68417e-10
1.84596e-10
1.26239e-10
8.58412e-11
5.80359e-11
3.90091e-11
2.60659e-11
1.73133e-11
1.14295e-11
7.50041e-12
4.89203e-12
3.171e-12
2.04254e-12
1.30732e-12
8.31369e-13
5.25257e-13
3.29686e-13
2.05567e-13
1.2732e-13
7.83247e-14
4.78546e-14
2.90364e-14
1.74956e-14
1.04678e-14
6.21854e-15
3.66777e-15
2.14766e-15
1.24839e-15
7.20332e-16
4.12555e-16
2.34516e-16
1.32306e-16
7.4076e-17
4.11568e-17
2.26907e-17
1.24129e-17
6.73744e-18
3.62822e-18
1.93842e-18
1.02739e-18
5.40187e-19
2.81743e-19
1.45762e-19
7.48011e-20
3.80739e-20
1.92217e-20
9.62478e-21
4.77986e-21
2.35428e-21
1.15004e-21
5.57154e-22
2.67697e-22
1.2756e-22
6.02825e-23
2.82534e-23
1.31326e-23
6.05389e-24
2.76771e-24
1.25489e-24
5.6428e-25
2.51636e-25
1.11304e-25
4.87971e-26
0.0358574
0.0356636
0.035359
0.0349493
0.0344393
0.033835
0.0331435
0.0323725
0.0315303
0.0306253
0.0296664
0.0286624
0.0276222
0.0265542
0.0254667
0.0243675
0.0232638
0.0221624
0.0210692
0.0199898
0.0189287
0.0178902
0.0168777
0.0158941
0.0149417
0.0140224
0.0131376
0.0122881
0.0114746
0.0106974
0.00995639
0.00925145
0.00858213
0.00794785
0.0073479
0.00678148
0.00624769
0.00574557
0.00527411
0.00483226
0.00441895
0.00403307
0.00367353
0.00333919
0.00302893
0.00274163
0.00247617
0.00223143
0.00200631
0.00179972
0.0016106
0.00143788
0.00128054
0.00113758
0.00100802
0.000890912
0.00078535
0.000690455
0.000605388
0.000529347
0.000461571
0.000401337
0.000347965
0.000300814
0.000259288
0.000222827
0.000190913
0.000163069
0.000138853
0.00011786
9.97226e-05
8.41033e-05
7.06982e-05
5.92326e-05
4.94599e-05
4.11592e-05
3.41337e-05
2.82087e-05
2.323e-05
1.90618e-05
1.55852e-05
1.26962e-05
1.03046e-05
8.33241e-06
6.71228e-06
5.38659e-06
4.30611e-06
3.429e-06
2.71985e-06
2.14883e-06
1.69092e-06
1.32525e-06
1.03438e-06
8.03979e-07
6.2225e-07
4.79534e-07
3.67948e-07
2.81089e-07
2.1378e-07
1.61857e-07
1.21987e-07
9.15163e-08
6.83388e-08
5.07918e-08
3.75709e-08
2.76577e-08
2.02611e-08
1.47695e-08
1.07127e-08
7.73103e-09
5.55079e-09
3.96484e-09
2.81723e-09
1.99121e-09
1.39983e-09
9.78716e-10
6.80601e-10
4.7069e-10
3.23704e-10
2.21361e-10
1.5051e-10
1.01744e-10
6.83758e-11
4.56791e-11
3.03334e-11
2.00208e-11
1.31335e-11
8.56237e-12