/*--------------------------------*- C++ -*----------------------------------*\
  =========                 |
  \\      /  F ield         | OpenFOAM: The Open Source CFD Toolbox
   \\    /   O peration     | Website:  https://openfoam.org
    \\  /    A nd           | Version:  7
     \\/     M anipulation  |
\*---------------------------------------------------------------------------*/
FoamFile
{
    version     2.0;
    format      ascii;
    class       volScalarField;
    location    "200";
    object      epsilon;
}
// * * * * * * * * * * * * * * * * * * * * * * * * * * * * * * * * * * * * * //

dimensions      [0 2 -3 0 0 0 0];

internalField   nonuniform List<scalar> 
12225
(
183.629
91.903
78.9232
73.0667
68.9731
65.5645
62.5854
59.9377
57.5648
55.4281
53.4982
51.752
50.1715
48.7434
47.4625
46.3417
45.3606
45.2964
57.956
42.9556
37.4588
34.8543
33.0327
31.5465
30.2637
29.1345
28.1304
27.2321
26.4251
25.6974
25.0386
24.4397
23.8865
23.3707
22.7948
22.193
32.756
30.8225
28.2048
26.4508
25.1011
23.9654
22.9697
22.084
21.2905
20.5763
19.9311
19.3462
18.8132
18.3242
17.8672
17.432
16.9575
16.4881
23.9256
25.3614
24.2962
23.0588
21.9628
20.9873
20.1074
19.311
18.589
17.9335
17.3372
16.7933
16.295
15.8354
15.4045
14.9929
14.5677
14.1516
19.8925
22.2826
22.0321
21.2621
20.3661
19.507
18.7021
17.9572
17.272
16.6435
16.0672
15.5382
15.0511
14.5998
14.1768
13.774
13.3747
12.9905
17.8
20.2877
20.5254
20.1137
19.4183
18.6686
17.9309
17.2287
16.5711
15.9602
15.395
14.8726
14.3889
13.9393
13.5178
13.1185
12.7331
12.3687
16.6317
18.8814
19.427
19.2466
18.7683
18.1288
17.4616
16.8044
16.1753
15.5822
15.0274
14.5104
14.0289
13.5796
13.1583
12.7609
12.3836
12.0309
15.9418
17.8307
18.5376
18.521
18.2342
17.714
17.1246
16.5196
15.9251
15.3544
14.8138
14.3052
13.8283
13.3813
12.9615
12.5667
12.1951
11.8499
15.5111
17.0035
17.7503
17.8694
17.7064
17.324
16.8181
16.2736
15.722
15.1814
14.6615
14.1669
13.6994
13.2588
12.844
12.4541
12.0885
11.7493
15.2263
16.3213
17.0165
17.227
17.1464
16.89
16.4746
15.9982
15.498
14.9959
14.5047
14.0315
13.58
13.1516
12.7467
12.3654
12.0079
11.6757
15.0303
15.7383
16.3152
16.5615
16.5338
16.3741
16.0515
15.646
15.2038
14.7482
14.294
13.8501
13.422
13.0126
12.6235
12.2558
11.9101
11.5878
14.9045
15.2735
15.701
15.9251
15.9206
15.8157
15.569
15.2255
14.8391
14.4313
14.0174
13.6072
13.2073
12.8217
12.453
12.1028
11.7722
11.4629
14.7892
14.8913
15.1264
15.2824
15.2792
15.1995
15.0052
14.7186
14.3863
14.0276
13.6569
13.2845
12.9173
12.5602
12.2163
11.8878
11.5761
11.2832
14.6749
14.5319
14.543
14.5656
14.5323
14.4406
14.2683
14.0331
13.7546
13.4486
13.1275
12.8005
12.4745
12.1544
11.8436
11.5446
11.259
10.9896
14.5842
14.2054
13.9856
13.8407
13.7068
13.5597
13.382
13.1704
12.9306
12.6705
12.3976
12.1186
11.8386
11.5619
11.2913
11.0292
10.7773
10.5387
14.5103
13.9411
13.5099
13.1788
12.9052
12.6626
12.4328
12.2041
11.9721
11.7357
11.4967
11.257
11.0191
10.7849
10.5563
10.3344
10.1205
9.91763
14.4528
13.7513
13.166
12.6796
12.2684
11.9138
11.601
11.3184
11.0573
10.8125
10.5804
10.3589
10.1467
9.94307
9.74766
9.56022
9.38072
9.21094
14.4209
13.6522
12.9896
12.4202
11.9282
11.5005
11.1263
10.7959
10.501
10.2352
9.99311
9.77065
9.56459
9.37245
9.19232
9.02272
8.86253
8.71144
14.4305
13.6807
13.0381
12.4893
12.0172
11.6075
11.2484
10.9301
10.6443
10.3846
10.1463
9.92567
9.71985
9.52678
9.34485
9.17288
9.00987
8.85402
14.4886
13.8715
13.3815
12.9919
12.6681
12.3869
12.1316
11.8903
11.6564
11.4266
11.2001
10.9769
10.7578
10.5436
10.3351
10.133
9.9377
9.74834
14.5823
14.2044
13.9696
13.8154
13.6748
13.5256
13.3524
13.1491
12.9201
12.6721
12.4118
12.1453
11.8774
11.612
11.352
11.0992
10.8551
10.6196
14.7172
14.7202
14.8013
14.8973
14.8845
14.8098
14.6438
14.3981
14.1068
13.7875
13.4535
13.1147
12.7784
12.4492
12.1304
11.824
11.5312
11.252
14.9321
15.3729
15.8451
16.0911
16.0881
15.981
15.7302
15.38
14.9869
14.5736
14.1556
13.743
13.3422
12.9572
12.5902
12.242
11.9131
11.6031
15.2173
16.2883
17.0051
17.2338
17.1614
16.9176
16.5101
16.0385
15.5416
15.0421
14.5534
14.0831
13.6355
13.2125
12.8145
12.4413
12.0919
11.7653
15.7471
17.4758
18.2595
18.3204
18.0996
17.6387
17.0788
16.4918
15.9076
15.3421
14.8037
14.2961
13.8205
13.3766
12.9633
12.5789
12.2215
11.8893
16.8114
19.1451
19.7172
19.5262
19.0166
18.3467
17.6514
16.9697
16.3192
15.7072
15.1359
14.6052
14.1137
13.6589
13.2384
12.8494
12.4896
12.1563
19.1601
21.7409
21.7287
21.1398
20.2744
19.4162
18.5993
17.8348
17.1258
16.4723
15.8712
15.319
14.8118
14.3456
13.9166
13.5217
13.1574
12.8209
24.8997
26.3217
25.2097
23.882
22.6802
21.6171
20.6624
19.7976
19.0123
18.2981
17.6475
17.054
16.5116
16.0153
15.5601
15.1425
14.7575
14.4034
42.1129
36.6611
32.8086
30.5359
28.8415
27.445
26.2295
25.147
24.1742
23.2954
22.4987
21.7742
21.1139
20.511
19.9587
19.4539
18.9867
18.5626
125.517
74.9272
64.3983
59.4698
56.0751
53.2963
50.8621
48.6807
46.7079
44.9148
43.2797
41.7849
40.4156
39.1596
38.0037
36.9444
35.9532
35.0708
0.0103591
0.0167611
0.0336561
0.048627
0.06087
0.071805
0.0832007
0.0950986
0.108052
0.122587
0.139108
0.157981
0.179619
0.204513
0.233171
0.265979
0.303082
0.344431
0.389819
0.438944
0.491481
0.547093
0.60542
0.666148
0.728849
0.793249
0.859119
0.926266
0.994526
1.06376
1.13385
1.20469
1.27618
1.34825
1.42081
1.49379
1.56711
1.64071
1.71451
1.78843
1.86241
1.93635
2.01018
2.08381
2.15714
2.23009
2.30255
2.37441
2.44558
2.51594
2.58541
2.6539
2.72136
2.78782
2.85344
2.91765
2.98044
3.04174
3.10149
3.1596
3.21601
3.27061
3.32335
3.37413
3.4229
3.46959
3.51415
3.5565
3.59663
3.63446
3.66999
3.70315
3.73394
3.76234
3.78833
3.8119
3.83306
3.85179
3.86812
3.88205
3.89357
3.90231
3.90903
3.91358
3.91583
3.91581
3.91357
3.90916
3.90264
3.89406
3.88346
3.87091
3.85645
3.84013
3.82203
3.80219
3.78067
3.75754
3.73285
3.70667
3.67907
3.65009
3.6198
3.58826
3.55552
3.52165
3.48669
3.4507
3.41381
3.37607
3.33746
3.29807
3.25793
3.21714
3.17573
3.13377
3.0913
3.04838
3.00506
2.96139
2.91742
2.87321
2.82878
2.78419
2.73947
2.69468
2.64985
2.60503
2.56027
2.5156
2.47105
2.4267
2.38256
2.33865
2.29502
2.25168
2.20867
2.16603
2.12377
2.08193
2.04054
1.99961
1.95918
1.91926
1.87987
1.84103
1.80277
1.76509
1.72803
1.69158
1.65576
1.62058
1.58604
1.55216
1.51895
1.48641
1.45455
1.42339
1.39292
1.36314
1.33402
1.30558
1.27781
1.25071
1.22427
1.19847
1.17332
1.14877
1.12483
1.10145
1.07858
1.05627
1.03454
1.01307
0.992205
0.970666
0.951245
0.926693
0.910408
0.839177
0.061835
0.0382259
0.0391722
0.0448192
0.0527843
0.0624661
0.0738983
0.0871139
0.102167
0.119088
0.137871
0.158486
0.181056
0.205686
0.232297
0.260546
0.290359
0.321529
0.353839
0.387127
0.421153
0.455495
0.489983
0.524518
0.559042
0.593545
0.628044
0.662573
0.697174
0.73189
0.766759
0.801818
0.837092
0.8726
0.908353
0.944354
0.980598
1.01707
1.05376
1.09063
1.12765
1.1648
1.20202
1.23928
1.27653
1.31371
1.35077
1.38766
1.42433
1.46073
1.49681
1.53257
1.56804
1.60329
1.63862
1.67351
1.7077
1.74113
1.77373
1.80544
1.83621
1.86596
1.89467
1.92226
1.94869
1.97392
1.9979
2.02061
2.04199
2.06204
2.08071
2.09798
2.11385
2.12829
2.14129
2.15286
2.16298
2.17166
2.1789
2.1847
2.18906
2.19194
2.19353
2.19375
2.19268
2.19028
2.18659
2.18164
2.17547
2.16811
2.1596
2.14997
2.13925
2.1275
2.11475
2.10103
2.0864
2.07088
2.05453
2.03737
2.01946
2.00082
1.9815
1.96153
1.94097
1.91983
1.89818
1.87606
1.8535
1.83055
1.80722
1.78355
1.75956
1.7353
1.71079
1.68608
1.66119
1.63615
1.61099
1.58575
1.56045
1.53512
1.50978
1.48446
1.45919
1.43398
1.40886
1.38386
1.359
1.33429
1.30976
1.28543
1.26133
1.23746
1.21384
1.19049
1.16741
1.14464
1.12218
1.10003
1.07822
1.05675
1.03562
1.01486
0.994466
0.974448
0.954812
0.935566
0.916717
0.898269
0.880225
0.862588
0.84536
0.828543
0.812141
0.796155
0.780586
0.765437
0.750708
0.736393
0.722491
0.708998
0.695913
0.683235
0.670962
0.659088
0.64761
0.636525
0.625828
0.615528
0.605602
0.596153
0.587287
0.578918
0.571285
0.564182
0.558676
0.55463
0.555958
0.563875
0.146519
0.0755682
0.067437
0.0703044
0.0772754
0.0870044
0.0991808
0.113634
0.130162
0.148504
0.168384
0.189567
0.211795
0.234854
0.258622
0.283088
0.308052
0.333349
0.358822
0.384309
0.409644
0.435055
0.460536
0.486105
0.511793
0.537639
0.563681
0.589957
0.616498
0.643332
0.670479
0.697952
0.72576
0.753905
0.782382
0.811185
0.8403
0.86971
0.899395
0.92933
0.959486
0.989833
1.02034
1.05096
1.08166
1.11239
1.14312
1.17381
1.2044
1.23486
1.26517
1.29527
1.32516
1.35482
1.3842
1.41313
1.44152
1.46927
1.49634
1.52267
1.54819
1.57285
1.5966
1.6194
1.64118
1.66192
1.68158
1.70011
1.71749
1.73369
1.74868
1.76245
1.77499
1.78627
1.79629
1.80505
1.81255
1.81879
1.82378
1.82751
1.83001
1.8312
1.83131
1.83025
1.82805
1.82472
1.8203
1.81481
1.80828
1.80076
1.79227
1.78285
1.77253
1.76135
1.74935
1.73656
1.72303
1.7088
1.69389
1.67834
1.66218
1.64546
1.6282
1.61045
1.59223
1.57359
1.55455
1.53516
1.51545
1.49545
1.47519
1.45468
1.43397
1.41307
1.39201
1.37083
1.34954
1.32817
1.30675
1.2853
1.26384
1.24239
1.22098
1.19962
1.17833
1.15714
1.13605
1.11509
1.09427
1.07362
1.05313
1.03284
1.01276
0.992888
0.973248
0.953846
0.934693
0.915801
0.897178
0.878832
0.86077
0.843001
0.82553
0.808363
0.791505
0.774962
0.758738
0.742836
0.727259
0.71201
0.697091
0.682503
0.668247
0.654322
0.64073
0.627472
0.614548
0.601958
0.5897
0.577772
0.566173
0.554901
0.543953
0.533329
0.523027
0.513044
0.50338
0.494032
0.485002
0.476294
0.467909
0.459868
0.452221
0.444974
0.438264
0.432076
0.426914
0.422848
0.422901
0.42813
0.254649
0.119089
0.1001
0.0996942
0.105716
0.115346
0.127693
0.142315
0.158836
0.176868
0.196029
0.215983
0.236465
0.257291
0.278357
0.299608
0.32099
0.34247
0.364026
0.385654
0.407441
0.429369
0.451498
0.473871
0.496524
0.51949
0.542799
0.566475
0.590539
0.615005
0.639886
0.665186
0.690909
0.717054
0.743612
0.770573
0.797926
0.825651
0.85373
0.882136
0.910844
0.939822
0.969035
0.998445
1.02801
1.05769
1.08745
1.11723
1.14698
1.17668
1.20626
1.23568
1.26491
1.29388
1.32249
1.35065
1.37826
1.40527
1.43159
1.45717
1.48196
1.50588
1.52888
1.55092
1.57194
1.59191
1.61077
1.6285
1.64506
1.66042
1.67457
1.68748
1.69913
1.70953
1.71866
1.72651
1.7331
1.73843
1.7425
1.74533
1.74685
1.74721
1.74644
1.7445
1.74143
1.73726
1.73201
1.72573
1.71844
1.71018
1.70098
1.69089
1.67994
1.66817
1.65561
1.64231
1.62829
1.61358
1.59824
1.58231
1.56582
1.54881
1.53132
1.51339
1.49505
1.47633
1.45727
1.43791
1.41827
1.39838
1.37828
1.35798
1.33753
1.31693
1.29623
1.27543
1.25458
1.23369
1.21278
1.19188
1.17101
1.15018
1.12942
1.10875
1.08817
1.06771
1.04739
1.02721
1.0072
0.98736
0.967713
0.948269
0.929045
0.910049
0.891287
0.872768
0.854501
0.836496
0.818758
0.801296
0.784116
0.767222
0.75062
0.734314
0.718309
0.702606
0.68721
0.672123
0.657345
0.64288
0.628728
0.614891
0.601364
0.588148
0.575243
0.562648
0.550363
0.538386
0.526714
0.515346
0.50428
0.493513
0.483044
0.47287
0.462991
0.453403
0.444105
0.435096
0.426377
0.417953
0.409828
0.402013
0.394536
0.387419
0.380744
0.37456
0.369164
0.364618
0.362851
0.365036
0.369032
0.163988
0.132571
0.128297
0.132419
0.140892
0.152254
0.165815
0.181096
0.197679
0.215195
0.233333
0.251866
0.270645
0.289593
0.308682
0.32791
0.347296
0.36687
0.386668
0.406747
0.427125
0.44785
0.468959
0.490487
0.512462
0.534909
0.55785
0.581299
0.605269
0.629766
0.654796
0.680363
0.706466
0.733092
0.760228
0.787862
0.815974
0.844541
0.873539
0.902936
0.932697
0.962785
0.993154
1.02376
1.05455
1.08547
1.11647
1.14749
1.17847
1.20937
1.24011
1.27062
1.30083
1.33063
1.35995
1.3887
1.4168
1.44418
1.47077
1.49651
1.52131
1.54513
1.56792
1.5896
1.61015
1.62951
1.64765
1.66453
1.68012
1.6944
1.70735
1.71896
1.72921
1.73812
1.74566
1.75185
1.75671
1.76023
1.7624
1.76324
1.76289
1.76129
1.75848
1.75448
1.74934
1.74308
1.73575
1.72738
1.71801
1.70768
1.69644
1.68432
1.67137
1.65763
1.64315
1.62796
1.61211
1.59564
1.57858
1.56098
1.54288
1.52432
1.50533
1.48596
1.46623
1.44618
1.42585
1.40527
1.38447
1.36348
1.34233
1.32105
1.29966
1.27819
1.25667
1.23512
1.21356
1.19202
1.17052
1.14907
1.1277
1.10643
1.08528
1.06425
1.04337
1.02266
1.00211
0.981762
0.961613
0.941678
0.921969
0.902489
0.883248
0.864261
0.845539
0.827089
0.808919
0.791036
0.773444
0.756149
0.739156
0.722468
0.706089
0.690021
0.674267
0.658828
0.643706
0.628901
0.614415
0.600248
0.5864
0.572868
0.55965
0.546745
0.534151
0.521868
0.509889
0.498213
0.486837
0.475761
0.46498
0.454491
0.444292
0.434381
0.424754
0.41541
0.40635
0.397572
0.38908
0.380878
0.372975
0.365392
0.35815
0.351311
0.344934
0.339212
0.334271
0.33098
0.331139
0.475236
0.205761
0.1619
0.153435
0.155142
0.161895
0.17171
0.183691
0.197296
0.212117
0.227827
0.244167
0.260949
0.278056
0.295426
0.313045
0.330922
0.349082
0.367573
0.386456
0.405754
0.425477
0.44568
0.466402
0.487677
0.509536
0.532003
0.5551
0.578849
0.603252
0.628315
0.654039
0.680414
0.707418
0.735071
0.763371
0.792306
0.821855
0.851994
0.882694
0.913919
0.945631
0.977787
1.01033
1.0432
1.07634
1.10969
1.14316
1.17671
1.21023
1.24365
1.27689
1.30984
1.34244
1.37458
1.40618
1.43716
1.46741
1.49686
1.52544
1.55306
1.57965
1.60514
1.62947
1.65259
1.67444
1.69496
1.71413
1.73191
1.74825
1.76315
1.77659
1.78854
1.799
1.80798
1.81547
1.82148
1.82603
1.82913
1.83073
1.83098
1.82987
1.82743
1.82367
1.81865
1.8124
1.80496
1.79638
1.78669
1.77595
1.7642
1.75149
1.73786
1.72337
1.70806
1.69198
1.67517
1.65769
1.63957
1.62087
1.60162
1.58187
1.56166
1.54103
1.52003
1.49869
1.47704
1.45513
1.43299
1.41065
1.38815
1.36551
1.34277
1.31996
1.29709
1.2742
1.25131
1.22845
1.20564
1.18291
1.16027
1.13774
1.11534
1.09309
1.07101
1.04911
1.02741
1.00592
0.984647
0.963614
0.942829
0.922303
0.902046
0.882066
0.862371
0.842967
0.823864
0.805067
0.786581
0.768413
0.750565
0.733042
0.715846
0.698981
0.682447
0.666247
0.65038
0.634849
0.619652
0.604789
0.590256
0.57605
0.562174
0.548627
0.535406
0.522509
0.509933
0.497675
0.48573
0.474097
0.462771
0.451745
0.441019
0.430589
0.42045
0.4106
0.401037
0.391759
0.382767
0.374062
0.365648
0.357534
0.349735
0.342273
0.335192
0.328556
0.322492
0.317152
0.312864
0.31131
0.564711
0.241724
0.186451
0.173735
0.172975
0.177837
0.185968
0.196298
0.208233
0.221381
0.235453
0.250234
0.265571
0.281366
0.297562
0.314159
0.331187
0.348693
0.36667
0.385112
0.404049
0.423585
0.443748
0.464573
0.486094
0.508342
0.531346
0.55511
0.579621
0.604928
0.631054
0.658016
0.685831
0.714498
0.743992
0.774297
0.805391
0.837249
0.869836
0.903115
0.937041
0.97156
1.00661
1.04214
1.07808
1.11436
1.15089
1.18759
1.22438
1.26115
1.29781
1.33427
1.37041
1.40614
1.44135
1.47594
1.50981
1.54286
1.575
1.60614
1.6362
1.66508
1.69272
1.71905
1.74401
1.76753
1.78956
1.81007
1.82901
1.84636
1.86208
1.87617
1.88862
1.89941
1.90855
1.91604
1.92191
1.92616
1.9288
1.92984
1.92939
1.92745
1.92405
1.91923
1.91304
1.90552
1.89672
1.88668
1.87547
1.86313
1.84972
1.83528
1.81988
1.80357
1.7864
1.76842
1.74968
1.73025
1.71016
1.68947
1.66823
1.64648
1.62427
1.60165
1.57865
1.55532
1.53171
1.50784
1.48376
1.45951
1.43512
1.41062
1.38604
1.36142
1.33677
1.31214
1.28754
1.26301
1.23856
1.21423
1.19002
1.16597
1.14208
1.11839
1.0949
1.07163
1.0486
1.02582
1.0033
0.981057
0.959099
0.937437
0.916082
0.895041
0.874321
0.853929
0.833871
0.814154
0.794782
0.77576
0.757089
0.738774
0.720817
0.703218
0.685979
0.669101
0.652582
0.636424
0.620625
0.605183
0.590097
0.575364
0.560983
0.546949
0.53326
0.519912
0.506903
0.494227
0.481882
0.469862
0.458164
0.446779
0.435703
0.424936
0.41447
0.404302
0.394431
0.384854
0.37557
0.366582
0.357891
0.349505
0.341436
0.333706
0.326349
0.319422
0.313017
0.307274
0.302317
0.299374
0.633773
0.270639
0.205616
0.188803
0.185821
0.188869
0.195416
0.204242
0.21471
0.22643
0.239141
0.252656
0.266851
0.281678
0.297128
0.313144
0.329687
0.346743
0.364367
0.382628
0.401584
0.421273
0.441733
0.463002
0.485117
0.508112
0.53198
0.556775
0.582565
0.609357
0.637158
0.665974
0.695799
0.726639
0.758483
0.791312
0.825101
0.859817
0.89542
0.931862
0.969088
1.00703
1.04563
1.0848
1.12445
1.16451
1.20487
1.24542
1.28607
1.3267
1.36719
1.40742
1.44729
1.48666
1.52542
1.56346
1.60066
1.63691
1.67211
1.70615
1.73894
1.77039
1.80042
1.82895
1.85592
1.88126
1.90493
1.92687
1.94705
1.96544
1.98201
1.99676
2.00967
2.02075
2.02999
2.03742
2.04305
2.0469
2.04896
2.04933
2.04804
2.04511
2.04059
2.03453
2.02699
2.018
2.00764
1.99596
1.98301
1.96886
1.95356
1.93718
1.91977
1.9014
1.88213
1.86202
1.84111
1.81948
1.79718
1.77425
1.75076
1.72676
1.7023
1.67742
1.65217
1.62661
1.60077
1.57469
1.54843
1.52201
1.49547
1.46886
1.44219
1.41551
1.38885
1.36223
1.33568
1.30924
1.28292
1.25675
1.23075
1.20494
1.17935
1.15399
1.12887
1.10402
1.07945
1.05517
1.0312
1.00755
0.984222
0.961234
0.938594
0.916308
0.894385
0.872829
0.851647
0.830844
0.810423
0.790388
0.770742
0.751485
0.732621
0.714148
0.696068
0.678379
0.661081
0.644173
0.627652
0.611516
0.595763
0.580389
0.565391
0.550765
0.536507
0.522613
0.509078
0.495898
0.483067
0.470582
0.458436
0.446624
0.435141
0.423982
0.413142
0.402615
0.392397
0.382484
0.372874
0.363566
0.354565
0.345876
0.337511
0.329488
0.321837
0.314605
0.307861
0.301723
0.296239
0.292221
0.682051
0.292317
0.219461
0.199074
0.194085
0.195517
0.200681
0.208234
0.217491
0.228057
0.239722
0.252361
0.265855
0.280065
0.294904
0.310379
0.326529
0.343396
0.361011
0.379414
0.398652
0.41877
0.439814
0.461828
0.484856
0.508895
0.53403
0.560329
0.5878
0.616463
0.646333
0.677422
0.709729
0.743251
0.777974
0.813876
0.850923
0.889075
0.928281
0.96848
1.0096
1.05157
1.09429
1.13767
1.18162
1.226
1.27072
1.31563
1.36063
1.40557
1.45031
1.49473
1.53869
1.58204
1.62465
1.6664
1.70716
1.7468
1.78521
1.82227
1.85789
1.89197
1.92442
1.95516
1.98412
2.01124
2.03646
2.05975
2.08106
2.10036
2.11765
2.1329
2.14612
2.15731
2.16648
2.17365
2.17884
2.18208
2.1834
2.18286
2.18051
2.17637
2.17053
2.16302
2.1539
2.14325
2.13112
2.11757
2.10268
2.08651
2.06912
2.05058
2.03097
2.01035
1.98878
1.96632
1.94305
1.91903
1.89432
1.86897
1.84304
1.8166
1.7897
1.76239
1.73472
1.70674
1.6785
1.65004
1.62142
1.59266
1.56382
1.53492
1.50601
1.47712
1.44828
1.41952
1.39087
1.36237
1.33403
1.30588
1.27795
1.25026
1.22282
1.19566
1.16879
1.14223
1.11599
1.0901
1.06455
1.03937
1.01456
0.990137
0.966102
0.942467
0.919236
0.896416
0.874012
0.852027
0.830465
0.809328
0.788618
0.768337
0.748483
0.729057
0.710059
0.691486
0.673338
0.65561
0.638302
0.621408
0.604926
0.588852
0.573181
0.557909
0.54303
0.528539
0.514432
0.500702
0.487343
0.474351
0.461719
0.44944
0.43751
0.425923
0.414672
0.403753
0.39316
0.382889
0.372934
0.363295
0.353973
0.344973
0.336304
0.327982
0.32003
0.31249
0.305413
0.298894
0.292952
0.288098
0.711139
0.307258
0.228526
0.205178
0.198434
0.198485
0.202474
0.209
0.217379
0.227236
0.238247
0.250208
0.263006
0.276631
0.291078
0.306344
0.322437
0.339389
0.357238
0.37603
0.395816
0.416649
0.438586
0.461664
0.485883
0.511367
0.538196
0.566389
0.595976
0.626981
0.659422
0.693308
0.72864
0.765409
0.803593
0.843161
0.884071
0.926267
0.969684
1.01424
1.05985
1.10642
1.15383
1.20196
1.2507
1.29989
1.3494
1.39909
1.44879
1.49836
1.54764
1.59648
1.64471
1.69219
1.73876
1.78428
1.82861
1.87161
1.91317
1.95317
1.99149
2.02803
2.06272
2.09546
2.12618
2.15483
2.18135
2.2057
2.22785
2.24778
2.26548
2.28093
2.29415
2.30514
2.31393
2.32053
2.32499
2.32734
2.32762
2.3259
2.3222
2.3166
2.30916
2.29995
2.28903
2.27647
2.26234
2.24671
2.22966
2.21127
2.19159
2.17072
2.14872
2.12567
2.10163
2.07668
2.05089
2.02433
1.99706
1.96915
1.94066
1.91166
1.88219
1.85232
1.82211
1.79161
1.76086
1.72992
1.69883
1.66765
1.6364
1.60513
1.57389
1.54269
1.51159
1.48061
1.44979
1.41915
1.38871
1.35852
1.32858
1.29893
1.26958
1.24055
1.21186
1.18353
1.15557
1.128
1.10083
1.07406
1.04772
1.0218
0.996323
0.971288
0.946703
0.922572
0.8989
0.875691
0.852945
0.830666
0.808853
0.787507
0.766628
0.746214
0.726263
0.706774
0.687742
0.669166
0.65104
0.633361
0.616124
0.599324
0.582956
0.567014
0.551491
0.536383
0.521683
0.507384
0.49348
0.479964
0.46683
0.45407
0.441679
0.429649
0.417975
0.406651
0.39567
0.385029
0.374723
0.364749
0.355102
0.345788
0.336813
0.328191
0.319941
0.312096
0.304697
0.297817
0.291462
0.285941
0.723137
0.316301
0.233556
0.207866
0.199545
0.198572
0.201806
0.207696
0.215434
0.224563
0.234901
0.246331
0.258777
0.272188
0.286549
0.301864
0.318159
0.335468
0.353841
0.37333
0.394001
0.415901
0.439044
0.463493
0.489401
0.516848
0.545881
0.576521
0.608805
0.642761
0.678407
0.715748
0.75478
0.795482
0.837824
0.881759
0.927227
0.974152
1.02245
1.07201
1.12273
1.17447
1.2271
1.28047
1.33443
1.38882
1.44346
1.49817
1.5528
1.60715
1.66105
1.71433
1.7668
1.81832
1.8687
1.9178
1.96546
2.01156
2.05595
2.09852
2.13916
2.17777
2.21426
2.24855
2.28058
2.31028
2.33762
2.36257
2.38508
2.40516
2.42279
2.43798
2.45074
2.4611
2.46907
2.4747
2.47803
2.4791
2.47798
2.47471
2.46934
2.46195
2.45262
2.44142
2.42842
2.4137
2.39734
2.37942
2.36001
2.33919
2.31706
2.29368
2.26914
2.24351
2.21688
2.18931
2.16089
2.13169
2.10177
2.07121
2.04008
2.00843
1.97634
1.94386
1.91105
1.87797
1.84467
1.8112
1.77762
1.74396
1.71028
1.67662
1.64301
1.6095
1.57612
1.5429
1.50988
1.47708
1.44454
1.41228
1.38033
1.34871
1.31744
1.28654
1.25603
1.22592
1.19623
1.16698
1.13817
1.10982
1.08193
1.05452
1.0276
1.00116
0.975218
0.949774
0.924833
0.900396
0.876465
0.853041
0.830124
0.807713
0.785807
0.764404
0.7435
0.723092
0.703178
0.683751
0.664808
0.646343
0.628351
0.610825
0.59376
0.577148
0.560983
0.545258
0.529966
0.5151
0.500651
0.486613
0.472978
0.459738
0.446887
0.434417
0.422322
0.410594
0.399228
0.388218
0.37756
0.36725
0.357286
0.347664
0.33839
0.329474
0.320932
0.312792
0.305084
0.297863
0.29113
0.285063
0.718686
0.319512
0.234923
0.207797
0.198577
0.196932
0.199389
0.204557
0.211696
0.220412
0.230462
0.241714
0.254097
0.267578
0.282157
0.29785
0.314692
0.332737
0.352049
0.372653
0.394569
0.417876
0.442735
0.469267
0.497558
0.527682
0.559647
0.593505
0.629292
0.667034
0.706742
0.748412
0.792025
0.837544
0.884915
0.93407
0.984919
1.03736
1.09127
1.14652
1.20297
1.26044
1.31877
1.37777
1.43728
1.49708
1.55698
1.61679
1.6763
1.73532
1.79365
1.8511
1.90749
1.96263
2.01637
2.06853
2.11898
2.16756
2.21415
2.25863
2.30091
2.34087
2.37845
2.41358
2.44619
2.47623
2.50368
2.52851
2.55071
2.57027
2.58719
2.60149
2.61319
2.62233
2.62894
2.63307
2.63477
2.63411
2.63116
2.62589
2.61846
2.60893
2.59738
2.58388
2.56852
2.55139
2.53255
2.51211
2.49015
2.46674
2.44199
2.41597
2.38876
2.36046
2.33114
2.30088
2.26976
2.23786
2.20525
2.17201
2.13821
2.10391
2.06918
2.03408
1.99868
1.96304
1.9272
1.89123
1.85517
1.81908
1.78299
1.74697
1.71104
1.67524
1.63962
1.6042
1.56903
1.53412
1.49952
1.46525
1.43133
1.39778
1.36463
1.3319
1.29961
1.26777
1.2364
1.2055
1.1751
1.14521
1.11582
1.08696
1.05862
1.03082
1.00356
0.97684
0.950663
0.925033
0.89995
0.875414
0.851424
0.827978
0.805074
0.782709
0.760879
0.73958
0.718808
0.698556
0.678819
0.659591
0.640866
0.622636
0.604894
0.587633
0.570844
0.554521
0.538655
0.523238
0.508262
0.493717
0.479597
0.465893
0.452597
0.439701
0.427197
0.415078
0.403339
0.391972
0.380972
0.370337
0.360062
0.350145
0.340584
0.331386
0.322565
0.314142
0.30614
0.298601
0.29152
0.284999
0.707677
0.319475
0.234309
0.206266
0.196008
0.193596
0.195528
0.20033
0.20723
0.215819
0.225871
0.237265
0.249944
0.263892
0.279129
0.295694
0.313599
0.33286
0.353487
0.375647
0.399492
0.425146
0.452713
0.482302
0.513998
0.54781
0.583796
0.622001
0.662454
0.705166
0.75013
0.797317
0.846681
0.898153
0.951644
1.00705
1.06423
1.12306
1.18336
1.24496
1.30768
1.37131
1.43565
1.50048
1.56558
1.63074
1.69572
1.76032
1.82432
1.8875
1.94966
2.0106
2.07014
2.12809
2.1843
2.23859
2.29084
2.3409
2.38867
2.43403
2.47689
2.51717
2.5548
2.58973
2.62191
2.65132
2.67792
2.70171
2.72269
2.74086
2.75625
2.76887
2.77878
2.786
2.79058
2.79259
2.79209
2.78919
2.78381
2.77612
2.76621
2.75414
2.74002
2.72391
2.7059
2.68609
2.66456
2.6414
2.61671
2.59057
2.56307
2.53431
2.50436
2.47331
2.44126
2.40828
2.37445
2.33986
2.30458
2.26868
2.23224
2.19533
2.15802
2.12037
2.08245
2.04431
2.00601
1.96762
1.92918
1.89074
1.85234
1.81405
1.77589
1.73791
1.70014
1.66263
1.6254
1.58849
1.55192
1.51573
1.47994
1.44457
1.40964
1.37518
1.3412
1.30771
1.27474
1.2423
1.21039
1.17903
1.14823
1.11799
1.08833
1.05924
1.03073
1.0028
0.975456
0.948699
0.922528
0.896941
0.871938
0.847515
0.82367
0.800397
0.777694
0.755554
0.733972
0.712941
0.692456
0.672508
0.653091
0.634197
0.615817
0.597943
0.580567
0.56368
0.547272
0.531336
0.515862
0.500841
0.486263
0.472121
0.458405
0.445106
0.432218
0.419731
0.407638
0.395934
0.384612
0.373668
0.363098
0.3529
0.34307
0.333606
0.324521
0.315831
0.307554
0.299722
0.292325
0.285417
0.687933
0.317263
0.232177
0.203237
0.192379
0.189585
0.191283
0.195998
0.202965
0.211789
0.222262
0.234294
0.247839
0.262855
0.279317
0.29721
0.316686
0.337878
0.360935
0.385959
0.413082
0.442438
0.474147
0.50829
0.544884
0.583991
0.625654
0.669892
0.716707
0.766072
0.817938
0.872232
0.928856
0.987688
1.04858
1.11138
1.1759
1.24193
1.30928
1.37771
1.44699
1.51688
1.58715
1.65754
1.72782
1.79775
1.86709
1.93562
2.00311
2.06935
2.13415
2.19731
2.25865
2.31802
2.37525
2.43021
2.48278
2.53284
2.58029
2.62505
2.66705
2.70622
2.74252
2.7759
2.80635
2.83385
2.85839
2.87999
2.89865
2.9144
2.92727
2.93729
2.94452
2.94901
2.95082
2.95002
2.94673
2.94085
2.93258
2.92198
2.90914
2.89415
2.87709
2.85806
2.83713
2.81441
2.78999
2.76396
2.7364
2.70742
2.6771
2.64554
2.61282
2.57903
2.54425
2.50858
2.47209
2.43486
2.39698
2.35852
2.31954
2.28013
2.24036
2.20028
2.15997
2.11947
2.07887
2.03819
1.99752
1.95688
1.91634
1.87593
1.8357
1.79569
1.75594
1.71648
1.67736
1.63859
1.60021
1.56226
1.52474
1.48769
1.45112
1.41507
1.37954
1.34455
1.31011
1.27624
1.24296
1.21026
1.17816
1.14666
1.11578
1.08551
1.05586
1.02683
0.998418
0.97063
0.943464
0.916918
0.890988
0.865671
0.840965
0.816863
0.79336
0.770451
0.748128
0.726386
0.705215
0.684609
0.664559
0.645057
0.626093
0.607659
0.589744
0.572341
0.555438
0.539026
0.523096
0.507638
0.492642
0.478098
0.463997
0.45033
0.437088
0.424263
0.411847
0.399832
0.388213
0.376984
0.366141
0.355681
0.345602
0.335893
0.326563
0.317626
0.309096
0.300996
0.293314
0.286079
0.66104
0.311764
0.228305
0.199432
0.18845
0.185641
0.187511
0.192595
0.200179
0.209879
0.221451
0.234738
0.249686
0.266404
0.285
0.305605
0.328312
0.353254
0.380579
0.410415
0.442898
0.478167
0.516297
0.557322
0.601284
0.648199
0.698056
0.750812
0.8064
0.864719
0.925642
0.989016
1.05466
1.12239
1.19196
1.26316
1.33573
1.40943
1.48398
1.55912
1.63458
1.71011
1.78544
1.86032
1.9345
2.00775
2.07983
2.15054
2.21967
2.28704
2.35246
2.41577
2.47683
2.53549
2.59165
2.64518
2.69599
2.74401
2.78916
2.83138
2.87064
2.90688
2.9401
2.97028
2.9974
3.02149
3.04255
3.0606
3.07567
3.08781
3.09705
3.10344
3.10705
3.10791
3.10622
3.10187
3.09495
3.08559
3.07387
3.05988
3.04369
3.0254
3.00509
2.98285
2.95878
2.93296
2.90549
2.87646
2.84596
2.81409
2.78094
2.74659
2.71113
2.67465
2.63723
2.59896
2.55993
2.5202
2.47986
2.43898
2.39764
2.35591
2.31386
2.27154
2.22904
2.1864
2.14368
2.10094
2.05824
2.01563
1.97314
1.93084
1.88875
1.84693
1.80541
1.76422
1.72341
1.68299
1.64301
1.60349
1.56444
1.5259
1.48789
1.45043
1.41353
1.37721
1.34149
1.30636
1.27186
1.23798
1.20474
1.17214
1.14018
1.10887
1.07822
1.04821
1.01887
0.990171
0.962129
0.934737
0.907992
0.881889
0.856424
0.831591
0.807385
0.783798
0.760823
0.738452
0.716678
0.695491
0.674882
0.654843
0.635364
0.616434
0.598044
0.580184
0.562843
0.546011
0.529677
0.513832
0.498464
0.483564
0.469122
0.455128
0.441572
0.428447
0.415742
0.403451
0.391566
0.380082
0.368994
0.358298
0.347991
0.33806
0.328508
0.319348
0.310589
0.302249
0.294312
0.286799
0.631309
0.304583
0.223619
0.195414
0.184896
0.182718
0.185534
0.191809
0.200755
0.212016
0.225548
0.241384
0.259602
0.280279
0.303547
0.329558
0.35845
0.390365
0.425437
0.463788
0.505512
0.550662
0.599277
0.651421
0.706991
0.765869
0.827911
0.892943
0.960762
1.03114
1.10383
1.17855
1.25503
1.33298
1.4121
1.49208
1.57264
1.65349
1.73433
1.81489
1.8949
1.97412
2.0523
2.12921
2.20465
2.2784
2.3503
2.42017
2.48785
2.55321
2.61611
2.67645
2.73413
2.78904
2.84113
2.89031
2.93655
2.97978
3.01999
3.05715
3.09124
3.12226
3.1502
3.17509
3.19693
3.21576
3.23159
3.24447
3.25445
3.26155
3.26588
3.26741
3.26632
3.26265
3.25632
3.24752
3.23632
3.22279
3.20701
3.18907
3.16905
3.14704
3.12311
3.09736
3.06988
3.04075
3.01007
2.97792
2.9444
2.90959
2.87358
2.83645
2.79829
2.75918
2.71921
2.67845
2.63699
2.5949
2.55227
2.50915
2.46563
2.42176
2.37763
2.33329
2.28881
2.24424
2.19964
2.15507
2.11058
2.06621
2.02202
1.97806
1.93435
1.89095
1.84789
1.8052
1.76292
1.72108
1.67971
1.63884
1.59848
1.55866
1.51941
1.48074
1.44267
1.40521
1.36838
1.33219
1.29665
1.26176
1.22754
1.194
1.16112
1.12893
1.09742
1.06659
1.03644
1.00697
0.978186
0.950073
0.922633
0.89586
0.869748
0.844292
0.819485
0.795319
0.771787
0.748881
0.72659
0.704907
0.683822
0.663324
0.643403
0.62405
0.605252
0.587001
0.569284
0.552091
0.535412
0.519234
0.503547
0.488341
0.473605
0.459329
0.445503
0.432117
0.419163
0.406632
0.394517
0.382811
0.371509
0.360605
0.350096
0.339967
0.330219
0.320861
0.311899
0.303347
0.295188
0.287439
0.601762
0.29657
0.21901
0.192398
0.18342
0.1829
0.187418
0.195877
0.207776
0.222948
0.241362
0.263123
0.288383
0.317299
0.35004
0.386763
0.427602
0.472656
0.521988
0.575623
0.633532
0.695661
0.76177
0.83147
0.904487
0.9805
1.05916
1.14009
1.22292
1.30728
1.39278
1.47908
1.56583
1.65269
1.73936
1.82553
1.91095
1.99535
2.0785
2.16018
2.24021
2.3184
2.39458
2.46861
2.54037
2.60972
2.67656
2.74081
2.80238
2.8612
2.91721
2.97036
3.0206
3.06791
3.11225
3.1536
3.19195
3.2273
3.25965
3.289
3.31537
3.33878
3.35923
3.37678
3.39145
3.40327
3.41228
3.41855
3.42211
3.42293
3.42134
3.41713
3.41036
3.40122
3.38971
3.37594
3.35995
3.34183
3.32165
3.29949
3.27543
3.24954
3.2219
3.1926
3.16171
3.12932
3.09551
3.06037
3.02397
2.98641
2.94776
2.9081
2.8675
2.82605
2.78383
2.7409
2.69735
2.65325
2.60866
2.56367
2.51833
2.47272
2.42689
2.38091
2.33484
2.28873
2.24263
2.19661
2.15071
2.10498
2.05947
2.01421
1.96926
1.92464
1.88039
1.83656
1.79316
1.75024
1.70782