/*--------------------------------*- C++ -*----------------------------------*\
  =========                 |
  \\      /  F ield         | OpenFOAM: The Open Source CFD Toolbox
   \\    /   O peration     | Website:  https://openfoam.org
    \\  /    A nd           | Version:  7
     \\/     M anipulation  |
\*---------------------------------------------------------------------------*/
FoamFile
{
    version     2.0;
    format      ascii;
    class       volScalarField;
    location    "200";
    object      k;
}
// * * * * * * * * * * * * * * * * * * * * * * * * * * * * * * * * * * * * * //

dimensions      [0 2 -2 0 0 0 0];

internalField   nonuniform List<scalar> 
12225
(
0.233344
0.116785
0.100291
0.0928488
0.0876469
0.0833154
0.0795296
0.0761651
0.0731497
0.0704344
0.067982
0.065763
0.0637545
0.0619396
0.0603118
0.0588874
0.0576405
0.0575585
0.315612
0.236007
0.214591
0.20324
0.194949
0.187977
0.181833
0.17633
0.17136
0.166851
0.162748
0.159007
0.155589
0.152462
0.149594
0.146933
0.14444
0.141646
0.347026
0.295217
0.273455
0.260092
0.249874
0.241138
0.233345
0.226291
0.219862
0.213982
0.20859
0.203638
0.199078
0.19487
0.190963
0.187292
0.183797
0.180057
0.363261
0.332134
0.313063
0.299367
0.288248
0.278491
0.269656
0.261571
0.254142
0.247302
0.240994
0.235169
0.229779
0.224775
0.220102
0.215696
0.211493
0.207284
0.372811
0.357362
0.342527
0.329787
0.318558
0.308323
0.298859
0.290081
0.281936
0.27438
0.267371
0.260864
0.254814
0.249174
0.243887
0.238897
0.234158
0.229583
0.378778
0.374551
0.364832
0.354029
0.343386
0.333164
0.323442
0.314264
0.305642
0.297572
0.290031
0.282991
0.276414
0.270257
0.264472
0.259012
0.253852
0.248965
0.382229
0.385805
0.381201
0.37305
0.36361
0.353873
0.344259
0.334972
0.326112
0.317724
0.30982
0.302391
0.295414
0.288855
0.282677
0.276851
0.271363
0.266209
0.38361
0.392599
0.392073
0.387201
0.379451
0.370635
0.361495
0.352402
0.343555
0.335061
0.326973
0.31931
0.312068
0.30523
0.298773
0.292681
0.286952
0.281585
0.383448
0.395385
0.398437
0.396253
0.390854
0.383337
0.37502
0.366428
0.357857
0.349484
0.341408
0.333683
0.326329
0.319348
0.312734
0.306485
0.300606
0.295093
0.382191
0.394933
0.400626
0.400528
0.397534
0.391715
0.384562
0.376763
0.368733
0.360717
0.352863
0.345265
0.337969
0.330997
0.324361
0.318075
0.312146
0.306571
0.380298
0.391921
0.398986
0.400836
0.39944
0.395561
0.389741
0.383003
0.375786
0.368381
0.360983
0.353713
0.346654
0.339854
0.333346
0.327151
0.321287
0.315749
0.378353
0.387567
0.394575
0.397599
0.39727
0.394999
0.390529
0.384841
0.378488
0.3718
0.364999
0.358218
0.351556
0.345081
0.338838
0.332858
0.327165
0.321767
0.376501
0.382493
0.388415
0.391814
0.392253
0.39105
0.387982
0.383373
0.377979
0.372109
0.365992
0.359793
0.353626
0.347573
0.341693
0.336034
0.33062
0.325461
0.374728
0.376457
0.380074
0.382773
0.383488
0.38289
0.380986
0.377522
0.373221
0.368356
0.363144
0.35775
0.352297
0.346875
0.341552
0.336376
0.331382
0.326596
0.372729
0.370577
0.370669
0.371162
0.371113
0.370501
0.369012
0.366449
0.363162
0.359337
0.355138
0.350703
0.346144
0.341547
0.336977
0.332486
0.328111
0.323891
0.371138
0.365251
0.361458
0.358966
0.356989
0.35515
0.353161
0.350809
0.348083
0.345029
0.341716
0.338216
0.334597
0.330918
0.327228
0.323566
0.319967
0.316472
0.369957
0.361268
0.354282
0.34874
0.344234
0.340446
0.337129
0.334075
0.331146
0.328262
0.325384
0.322498
0.319604
0.316711
0.313832
0.310979
0.308169
0.305425
0.369316
0.359172
0.350473
0.343111
0.33688
0.331586
0.327053
0.323114
0.319626
0.316472
0.313563
0.310832
0.308232
0.30573
0.303306
0.300945
0.298641
0.2964
0.369503
0.359746
0.351468
0.344538
0.338714
0.333775
0.329531
0.325808
0.322465
0.319396
0.316522
0.313787
0.311156
0.308603
0.306114
0.30368
0.301296
0.298948
0.370697
0.363762
0.358764
0.355138
0.352279
0.349813
0.347461
0.345013
0.342394
0.339589
0.33662
0.333521
0.330332
0.327092
0.323834
0.320586
0.317371
0.314201
0.372684
0.370374
0.370298
0.370578
0.370495
0.369905
0.368503
0.366112
0.36303
0.359424
0.355447
0.351231
0.34688
0.342477
0.338085
0.33375
0.329504
0.32537
0.3756
0.379073
0.383918
0.387099
0.387898
0.387147
0.38491
0.381082
0.376427
0.371239
0.365736
0.36009
0.354423
0.34882
0.34334
0.338021
0.332889
0.327966
0.378757
0.388355
0.395557
0.398446
0.397945
0.395436
0.390648
0.384768
0.378265
0.371462
0.364605
0.357815
0.351173
0.344736
0.338541
0.332609
0.326951
0.321578
0.381903
0.394284
0.400233
0.400151
0.397291
0.39162
0.384608
0.376944
0.369024
0.3611
0.353313
0.345765
0.338522
0.331617
0.32506
0.318853
0.312991
0.307473
0.383412
0.393692
0.395146
0.391706
0.384917
0.376623
0.367745
0.358764
0.349938
0.341409
0.333247
0.325498
0.318176
0.311275
0.304784
0.298685
0.292961
0.287606
0.381713
0.384451
0.379883
0.371238
0.361444
0.35145
0.34166
0.332231
0.323255
0.31477
0.306784
0.299293
0.292281
0.285725
0.279597
0.273869
0.268517
0.263534
0.375353
0.364937
0.35209
0.339755
0.32838
0.317845
0.30803
0.298868
0.290324
0.282368
0.274964
0.268077
0.261674
0.255719
0.250177
0.245018
0.240211
0.235757
0.363151
0.330201
0.310877
0.296824
0.285355
0.275342
0.266298
0.258018
0.250403
0.243383
0.236901
0.230909
0.225365
0.220231
0.215471
0.211054
0.206944
0.203162
0.338596
0.272956
0.249919
0.236554
0.226518
0.218062
0.210561
0.20378
0.197606
0.191962
0.186785
0.182029
0.17765
0.173614
0.169887
0.166445
0.163241
0.160336
0.277118
0.165425
0.142179
0.131298
0.123803
0.117668
0.112294
0.107478
0.103122
0.0991638
0.0955538
0.0922536
0.0892306
0.0864574
0.0839056
0.0815669
0.0793784
0.0774304
3.60002e-05
0.000265638
0.000533052
0.000769631
0.000962631
0.00113424
0.00131289
0.00149911
0.00170154
0.00192845
0.00218613
0.00248022
0.00281707
0.00320424
0.00364966
0.00415942
0.00473561
0.00537731
0.00608112
0.00684211
0.00765499
0.00851432
0.00941434
0.0103499
0.0113143
0.0123032
0.0133127
0.0143399
0.0153821
0.0164371
0.0175029
0.0185778
0.0196603
0.0207492
0.021843
0.0229407
0.0240409
0.0251427
0.0262447
0.0273459
0.028445
0.0295408
0.0306319
0.031717
0.0327947
0.0338636
0.034922
0.0359684
0.0370013
0.0380191
0.0390202
0.0400035
0.0409684
0.0419152
0.0428462
0.0437532
0.0446359
0.0454933
0.0463247
0.0471286
0.0479042
0.0486501
0.0493655
0.0500491
0.0507002
0.0513177
0.0519012
0.0524497
0.0529628
0.0534397
0.0538804
0.0542842
0.0546512
0.054981
0.0552737
0.0555291
0.0557477
0.0559294
0.0560745
0.0561833
0.0562558
0.0562869
0.0562881
0.0562569
0.0561915
0.0560927
0.0559615
0.0557987
0.0556053
0.055382
0.05513
0.0548499
0.0545428
0.0542096
0.0538514
0.053469
0.0530634
0.0526357
0.0521869
0.0517179
0.0512299
0.0507236
0.0502002
0.0496605
0.0491055
0.0485361
0.0479532
0.0473575
0.046751
0.0461346
0.0455079
0.0448722
0.0442284
0.0435775
0.0429202
0.0422575
0.0415899
0.0409185
0.0402438
0.0395666
0.0388878
0.0382078
0.0375274
0.0368472
0.0361676
0.0354895
0.0348134
0.0341398
0.0334694
0.0328027
0.0321401
0.0314825
0.0308302
0.0301835
0.0295427
0.0289084
0.0282807
0.0276601
0.027047
0.0264418
0.0258447
0.025256
0.024676
0.0241048
0.0235428
0.0229901
0.0224468
0.0219133
0.0213896
0.020876
0.0203723
0.0198787
0.0193953
0.0189221
0.0184592
0.0180066
0.0175644
0.0171326
0.0167113
0.0163001
0.0158989
0.0155077
0.0151263
0.0147548
0.0143929
0.0140404
0.0136971
0.0133627
0.0130369
0.0127195
0.0124096
0.0121076
0.0118138
0.0115248
0.0112441
0.0109575
0.0106959
0.0103789
0.0101556
0.00932363
0.000214857
0.00150187
0.00263695
0.00347003
0.00414319
0.00473043
0.00528017
0.00583705
0.00642529
0.00705547
0.00773016
0.00844967
0.0092164
0.0100344
0.010907
0.0118356
0.0128188
0.0138536
0.0149352
0.0160586
0.0172189
0.0184112
0.0196312
0.0208753
0.0221403
0.0234238
0.0247239
0.026039
0.0273679
0.0287093
0.030062
0.0314251
0.0327974
0.0341779
0.0355656
0.0369592
0.0383576
0.0397597
0.041164
0.0425694
0.0439744
0.0453775
0.0467772
0.0481719
0.0495598
0.0509393
0.0523083
0.0536649
0.0550071
0.0563326
0.057639
0.0589237
0.0601838
0.0614158
0.0626152
0.0637847
0.0649253
0.0660358
0.0671148
0.0681607
0.0691721
0.0701472
0.0710848
0.0719835
0.072842
0.0736591
0.0744339
0.0751653
0.0758527
0.0764952
0.0770923
0.0776437
0.0781489
0.0786077
0.0790201
0.0793861
0.0797058
0.0799796
0.0802076
0.0803905
0.0805287
0.0806198
0.0806622
0.0806696
0.0806351
0.0805583
0.080441
0.0802841
0.0800887
0.0798561
0.0795872
0.0792833
0.0789455
0.0785748
0.0781727
0.0777401
0.0772784
0.0767886
0.0762722
0.0757301
0.0751637
0.0745741
0.0739624
0.0733299
0.0726776
0.0720066
0.0713182
0.0706135
0.0698942
0.069161
0.0684145
0.0676556
0.0668855
0.0661052
0.0653158
0.0645181
0.0637131
0.0629016
0.0620847
0.061263
0.0604375
0.059609
0.0587782
0.0579459
0.0571127
0.0562795
0.0554469
0.0546157
0.0537864
0.0529598
0.0521365
0.0513172
0.0505023
0.0496925
0.0488882
0.04809
0.0472984
0.0465139
0.0457369
0.0449678
0.0442071
0.0434551
0.042712
0.0419783
0.0412543
0.0405402
0.0398363
0.039143
0.0384604
0.0377888
0.0371283
0.0364789
0.0358409
0.0352144
0.0345997
0.0339967
0.0334057
0.0328266
0.0322594
0.031704
0.0311604
0.0306288
0.0301091
0.0296013
0.0291053
0.0286209
0.0281479
0.0276863
0.0272358
0.0267962
0.0263675
0.0259477
0.0255356
0.0251315
0.0247367
0.0243467
0.0239754
0.0235821
0.0233
0.0224641
0.000509092
0.00304223
0.00477617
0.00599405
0.00699461
0.00789882
0.00876956
0.00964404
0.0105424
0.011473
0.0124379
0.013437
0.014471
0.0155413
0.0166493
0.0177961
0.0189822
0.0202071
0.0214693
0.0227668
0.0240968
0.0254564
0.0268435
0.0282558
0.0296916
0.031149
0.0326264
0.0341223
0.0356351
0.0371636
0.0387062
0.0402618
0.0418289
0.0434063
0.0449927
0.0465868
0.0481874
0.0497931
0.0514024
0.053014
0.0546262
0.0562376
0.0578463
0.0594506
0.0610487
0.0626384
0.0642178
0.0657846
0.0673367
0.0688715
0.0703868
0.0718802
0.0733491
0.0747913
0.0762047
0.0775877
0.0789386
0.0802553
0.0815358
0.082778
0.0839799
0.0851397
0.0862556
0.0873258
0.0883488
0.0893231
0.0902476
0.0911209
0.0919421
0.0927104
0.0934249
0.0940853
0.094691
0.0952418
0.0957376
0.0961783
0.0965642
0.0968955
0.0971726
0.097396
0.0975662
0.0976834
0.0977432
0.0977571
0.0977226
0.0976387
0.0975067
0.097328
0.0971037
0.0968353
0.0965239
0.096171
0.095778
0.0953461
0.0948769
0.0943717
0.0938319
0.093259
0.0926544
0.0920194
0.0913555
0.090664
0.0899462
0.0892036
0.0884375
0.0876492
0.0868401
0.0860113
0.0851644
0.0843005
0.0834208
0.0825262
0.081618
0.0806972
0.0797652
0.0788228
0.0778713
0.0769115
0.0759447
0.0749716
0.0739934
0.0730109
0.072025
0.0710366
0.0700464
0.0690555
0.0680644
0.0670741
0.0660854
0.0650989
0.0641154
0.0631356
0.0621601
0.0611896
0.0602248
0.0592662
0.0583143
0.0573698
0.0564331
0.0555048
0.0545853
0.0536751
0.0527745
0.051884
0.0510038
0.0501345
0.0492762
0.0484294
0.0475942
0.0467711
0.0459598
0.0451607
0.044374
0.0436001
0.0428389
0.0420907
0.0413556
0.0406338
0.039925
0.0392292
0.0385466
0.0378773
0.0372212
0.0365785
0.0359489
0.0353323
0.0347287
0.034138
0.0335602
0.0329949
0.0324424
0.031902
0.0313727
0.0308546
0.030349
0.0298553
0.029384
0.0289128
0.0285783
0.0278643
0.000884995
0.00459338
0.00683909
0.00836092
0.00959311
0.0106954
0.0117462
0.0127891
0.0138476
0.0149325
0.0160478
0.017194
0.0183714
0.0195808
0.0208236
0.0221014
0.023415
0.0247649
0.0261505
0.0275707
0.0290241
0.0305092
0.0320242
0.0335673
0.0351368
0.036731
0.0383483
0.0399871
0.0416461
0.0433237
0.0450187
0.0467298
0.0484556
0.0501949
0.0519463
0.0537087
0.0554806
0.0572606
0.0590472
0.0608388
0.0626338
0.0644303
0.0662265
0.0680202
0.0698094
0.0715918
0.073365
0.0751266
0.076874
0.0786047
0.0803158
0.0820049
0.083669
0.0853057
0.0869122
0.0884858
0.0900241
0.0915243
0.092984
0.0944007
0.0957719
0.0970954
0.098369
0.0995908
0.100759
0.101872
0.102927
0.103924
0.104862
0.105739
0.106555
0.107309
0.108
0.108629
0.109194
0.109697
0.110136
0.110513
0.110828
0.111082
0.111275
0.111407
0.111476
0.11149
0.111449
0.111351
0.111199
0.110993
0.110736
0.110428
0.110071
0.109667
0.109217
0.108723
0.108186
0.107608
0.106991
0.106337
0.105646
0.104921
0.104163
0.103374
0.102555
0.101708
0.100834
0.0999346
0.0990119
0.098067
0.0971013
0.0961163
0.0951132
0.0940933
0.093058
0.0920084
0.090946
0.0898719
0.0887874
0.0876935
0.0865915
0.0854825
0.0843676
0.0832477
0.0821239
0.0809972
0.0798685
0.0787388
0.0776089
0.0764797
0.0753521
0.074227
0.073105
0.0719871
0.0708739
0.0697662
0.0686646
0.0675698
0.0664825
0.0654032
0.0643325
0.0632709
0.0622191
0.0611774
0.0601463
0.0591263
0.0581177
0.057121
0.0561365
0.0551645
0.0542054
0.0532595
0.0523269
0.0514077
0.0505024
0.049611
0.0487337
0.0478707
0.0470222
0.0461883
0.0453685
0.0445631
0.0437722
0.0429959
0.0422342
0.0414873
0.0407548
0.0400367
0.0393329
0.0386436
0.0379686
0.0373079
0.0366614
0.0360292
0.0354109
0.0348068
0.0342181
0.0336462
0.0330989
0.0325675
0.0321498
0.0315105
0.00128294
0.00604535
0.00872842
0.0105067
0.0119237
0.0131693
0.0143368
0.0154784
0.0166238
0.0177892
0.0189823
0.0202068
0.0214643
0.022756
0.0240832
0.025447
0.0268482
0.0282871
0.0297635
0.0312766
0.0328254
0.0344085
0.0360246
0.0376721
0.0393495
0.0410554
0.0427883
0.0445469
0.0463298
0.0481359
0.0499639
0.0518124
0.0536804
0.0555664
0.0574692
0.0593874
0.0613195
0.0632639
0.0652189
0.0671828
0.0691535
0.0711291
0.0731072
0.0750856
0.0770617
0.0790329
0.0809965
0.0829495
0.0848891
0.0868122
0.0887156
0.0905963
0.0924509
0.0942763
0.0960692
0.0978263
0.0995445
0.101221
0.102852
0.104436
0.105968
0.107448
0.108872
0.110237
0.111543
0.112786
0.113965
0.115079
0.116126
0.117105
0.118016
0.118856
0.119626
0.120326
0.120955
0.121513
0.122001
0.122418
0.122766
0.123046
0.123257
0.1234
0.123474
0.123485
0.123434
0.12332
0.123145
0.12291
0.122618
0.122269
0.121866
0.12141
0.120903
0.120347
0.119744
0.119095
0.118403
0.117668
0.116894
0.116081
0.115232
0.114348
0.113431
0.112484
0.111506
0.110501
0.10947
0.108414
0.107336
0.106236
0.105116
0.103978
0.102823
0.101653
0.100468
0.0992707
0.0980619
0.096843
0.0956154
0.0943802
0.0931386
0.0918918
0.0906408
0.0893868
0.0881309
0.086874
0.0856171
0.0843612
0.0831073
0.0818562
0.0806088
0.079366
0.0781285
0.0768972
0.0756728
0.0744561
0.0732476
0.072048
0.070858
0.0696782
0.0685091
0.0673513
0.0662052
0.0650713
0.06395
0.0628418
0.061747
0.060666
0.0595991
0.0585467
0.0575089
0.056486
0.0554782
0.0544857
0.0535087
0.0525473
0.0516017
0.050672
0.0497581
0.0488601
0.0479779
0.0471118
0.0462617
0.0454277
0.0446093
0.0438066
0.0430196
0.0422485
0.0414933
0.0407537
0.04003
0.0393223
0.0386308
0.037956
0.0372993
0.036663
0.0360533
0.0354694
0.0349764
0.0343289
0.0016526
0.0073066
0.0103475
0.012339
0.0139068
0.0152643
0.016517
0.0177247
0.0189235
0.0201351
0.0213721
0.0226414
0.0239468
0.0252904
0.0266735
0.0280971
0.0295615
0.0310668
0.0326127
0.0341985
0.0358234
0.0374863
0.0391859
0.0409211
0.0426906
0.0444933
0.0463281
0.0481937
0.0500892
0.0520133
0.0539649
0.0559428
0.0579457
0.0599723
0.0620212
0.0640909
0.0661797
0.0682858
0.0704073
0.0725421
0.0746879
0.0768423
0.0790027
0.0811662
0.0833301
0.085491
0.0876459
0.0897913
0.0919238
0.0940397
0.0961354
0.0982073
0.100251
0.102264
0.104241
0.10618
0.108075
0.109925
0.111724
0.113471
0.115162
0.116794
0.118363
0.119869
0.121307
0.122677
0.123975
0.125201
0.126353
0.127429
0.128429
0.129352
0.130196
0.130963
0.131651
0.132261
0.132793
0.133247
0.133624
0.133926
0.134152
0.134303
0.134379
0.134385
0.134322
0.13419
0.13399
0.133725
0.133397
0.133006
0.132556
0.132048
0.131484
0.130866
0.130197
0.129477
0.12871
0.127897
0.12704
0.126142
0.125203
0.124227
0.123216
0.12217
0.121093
0.119985
0.118849
0.117686
0.116499
0.115289
0.114057
0.112805
0.111536
0.110249
0.108948
0.107633
0.106306
0.104968
0.103621
0.102266
0.100905
0.0995382
0.0981673
0.0967935
0.0954179
0.0940416
0.0926657
0.0912913
0.0899193
0.0885507
0.0871866
0.0858277
0.084475
0.0831292
0.0817912
0.0804618
0.0791417
0.0778315
0.076532
0.0752438
0.0739674
0.0727035
0.0714525
0.0702149
0.0689913
0.0677819
0.0665873
0.0654078
0.0642437
0.0630954
0.061963
0.0608469
0.0597473
0.0586644
0.0575982
0.0565491
0.0555171
0.0545023
0.0535047
0.0525244
0.0515615
0.0506159
0.0496877
0.0487769
0.0478834
0.047007
0.0461479
0.0453061
0.0444816
0.043674
0.0428837
0.0421112
0.0413568
0.0406213
0.0399063
0.0392144
0.0385508
0.0379187
0.0373592
0.0366948
0.0019641
0.0083315
0.0116522
0.0138149
0.0155055
0.016955
0.018277
0.0195372
0.0207765
0.0220213
0.0232882
0.0245872
0.0259245
0.0273034
0.0287258
0.0301927
0.0317043
0.0332609
0.034862
0.036507
0.0381951
0.0399255
0.0416973
0.0435096
0.0453617
0.0472526
0.0491814
0.0511474
0.0531493
0.0551862
0.0572571
0.0593607
0.0614959
0.0636611
0.0658549
0.0680756
0.0703214
0.07259
0.0748793
0.0771868
0.0795098
0.0818454
0.0841906
0.086542
0.0888961
0.0912493
0.0935977
0.0959375
0.0982645
0.100575
0.102863
0.105127
0.10736
0.109559
0.11172
0.113838
0.115908
0.117928
0.119894
0.121801
0.123646
0.125426
0.127138
0.128778
0.130345
0.131836
0.133249
0.134582
0.135833
0.137002
0.138086
0.139086
0.14
0.140829
0.141572
0.142229
0.142801
0.143288
0.143691
0.14401
0.144248
0.144405
0.144479
0.144478
0.1444
0.144248
0.144022
0.143725
0.143359
0.142926
0.142428
0.141868
0.141247
0.140567
0.139831
0.139042
0.138201
0.13731
0.136372
0.13539
0.134364
0.133298
0.132193
0.131052
0.129877
0.128669
0.127431
0.126164
0.124872
0.123554
0.122214
0.120853
0.119473
0.118075
0.116662
0.115234
0.113793
0.112342
0.110881
0.109412
0.107936
0.106455
0.10497
0.103482
0.101993
0.100503
0.0990145
0.097528
0.0960445
0.0945652
0.0930911
0.0916231
0.0901621
0.0887091
0.0872648
0.0858302
0.0844058
0.0829926
0.0815912
0.0802022
0.0788263
0.0774641
0.0761161
0.0747827
0.0734646
0.0721621
0.0708757
0.0696056
0.0683524
0.0671162
0.0658973
0.0646961
0.0635127
0.0623473
0.0612
0.0600712
0.0589607
0.0578689
0.0567956
0.055741
0.054705
0.0536878
0.0526892
0.0517094
0.0507483
0.0498057
0.0488818
0.0479766
0.0470902
0.0462224
0.0453736
0.0445443
0.0437347
0.0429458
0.0421794
0.0414384
0.0407269
0.04005
0.0394324
0.0387445
0.00220452
0.00911226
0.0126397
0.0149335
0.0167217
0.0182477
0.0196296
0.0209365
0.0222126
0.0234871
0.0247796
0.026103
0.0274653
0.0288712
0.0303238
0.0318246
0.0333741
0.0349726
0.0366196
0.0383149
0.0400579
0.0418483
0.0436855
0.0455691
0.0474985
0.0494732
0.0514924
0.0535553
0.0556613
0.0578094
0.0599988
0.0622281
0.0644962
0.0668014
0.0691421
0.0715162
0.0739216
0.0763558
0.0788162
0.0812997
0.0838033
0.0863234
0.0888565
0.0913986
0.0939455
0.0964932
0.099037
0.101572
0.104095
0.106599
0.10908
0.111534
0.113954
0.116338
0.118679
0.120972
0.123214
0.1254
0.127526
0.129588
0.131582
0.133504
0.135351
0.13712
0.138809
0.140414
0.141934
0.143367
0.144711
0.145965
0.147127
0.148197
0.149175
0.150059
0.150851
0.151549
0.152156
0.15267
0.153094
0.153428
0.153673
0.15383
0.153901
0.153889
0.153794
0.153619
0.153365
0.153035
0.15263
0.152153
0.151607
0.150993
0.150315
0.149574
0.148773
0.147914
0.147
0.146033
0.145016
0.143951
0.14284
0.141686
0.14049
0.139257
0.137986
0.136681
0.135345
0.133978
0.132583
0.131163
0.129718
0.128252
0.126765
0.125261
0.123739
0.122203
0.120654
0.119094
0.117524
0.115945
0.114361
0.112771
0.111177
0.109581
0.107984
0.106387
0.104792
0.103199
0.10161
0.100027
0.0984489
0.0968781
0.0953153
0.0937615
0.0922175
0.0906842
0.0891623
0.0876527
0.0861561
0.0846732
0.0832046
0.0817508
0.0803126
0.0788904
0.0774847
0.0760959
0.0747245
0.0733708
0.0720353
0.0707181
0.0694196
0.0681401
0.0668798
0.0656387
0.0644172
0.0632154
0.0620333
0.0608711
0.0597288
0.0586064
0.057504
0.0564216
0.0553593
0.0543169
0.0532944
0.0522919
0.0513094
0.0503469
0.0494045
0.0484824
0.0475807
0.0467
0.045841
0.0450045
0.0441925
0.0434074
0.0426529
0.0419343
0.0412658
0.0405507
0.0023725
0.00966434
0.0133329
0.015721
0.0175838
0.0191722
0.0206061
0.0219562
0.0232679
0.0245721
0.0258904
0.0272375
0.0286232
0.0300539
0.0315333
0.0330636
0.0346458
0.0362808
0.0379687
0.0397097
0.0415037
0.0433508
0.0452508
0.0472036
0.0492089
0.0512665
0.0533758
0.0555365
0.0577479
0.0600094
0.0623198
0.064678
0.0670825
0.0695315
0.0720231
0.0745549
0.0771243
0.0797285
0.0823641
0.0850278
0.0877157
0.0904238
0.0931476
0.0958827
0.0986242
0.101367
0.104106
0.106837
0.109552
0.112248
0.114919
0.117559
0.120162
0.122723
0.125238
0.127701
0.130106
0.13245
0.134727
0.136934
0.139066
0.14112
0.143093
0.14498
0.14678
0.148489
0.150106
0.151629
0.153055
0.154384
0.155615
0.156746
0.157778
0.158709
0.159541
0.160274
0.160907
0.161442
0.16188
0.162222
0.16247
0.162624
0.162686
0.162659
0.162545
0.162344
0.162059
0.161694
0.161249
0.160728
0.160133
0.159466
0.15873
0.157928
0.157063
0.156136
0.155151
0.15411
0.153015
0.15187
0.150677
0.149437
0.148155
0.146832
0.14547
0.144072
0.142641
0.141178
0.139686
0.138167
0.136622
0.135056
0.133468
0.131861
0.130237
0.128598
0.126946
0.125283
0.123609
0.121928
0.12024
0.118547
0.116851
0.115153
0.113454
0.111756
0.11006
0.108368
0.10668
0.104999
0.103324
0.101657
0.0999986
0.0983505
0.0967133
0.095088
0.0934752
0.0918759
0.0902907
0.0887205
0.0871658
0.0856272
0.0841054
0.0826009
0.0811141
0.0796456
0.0781958
0.076765
0.0753536
0.073962
0.0725903
0.0712389
0.0699079
0.0685975
0.067308
0.0660394
0.0647918
0.0635653
0.06236
0.0611759
0.060013
0.0588713
0.0577509
0.0566516
0.0555736
0.0545168
0.0534811
0.0524668
0.0514738
0.0505024
0.0495529
0.0486258
0.0477219
0.0468422
0.0459885
0.0451634
0.0443699
0.0436129
0.0428996
0.0421563
0.00247362
0.0100141
0.0137674
0.0162178
0.018134
0.0197711
0.0212492
0.0226386
0.023985
0.0253201
0.0266665
0.0280396
0.0294504
0.0309061
0.0324117
0.0339705
0.0355845
0.0372552
0.0389835
0.04077
0.0426154
0.0445201
0.0464844
0.0485085
0.0505925
0.0527363
0.0549398
0.0572029
0.059525
0.0619054
0.0643429
0.0668362
0.0693837
0.0719831
0.0746322
0.0773281
0.0800677
0.0828475
0.0856637
0.088512
0.091388
0.0942868
0.0972032
0.100132
0.103068
0.106004
0.108936
0.111857
0.114762
0.117643
0.120495
0.123312
0.126088
0.128817
0.131494
0.134113
0.136668
0.139156
0.14157
0.143908
0.146164
0.148335
0.150417
0.152407
0.154303
0.156101
0.1578
0.159398
0.160892
0.162283
0.163568
0.164748
0.165822
0.16679
0.167652
0.168408
0.169059
0.169607
0.170051
0.170394
0.170638
0.170782
0.170831
0.170785
0.170647
0.170417
0.1701
0.169697
0.16921
0.168644
0.167999
0.16728
0.166488
0.165626
0.164698
0.163705
0.162651
0.161538
0.16037
0.159148
0.157876
0.156555
0.15519
0.153782
0.152333
0.150847
0.149326
0.147773
0.146189
0.144577
0.142939
0.141277
0.139594
0.137892
0.136172
0.134437
0.132688
0.130928
0.129158
0.12738
0.125596
0.123807
0.122015
0.120222
0.118428
0.116637
0.114847
0.113063
0.111283
0.10951
0.107745
0.105989
0.104243
0.102508
0.100784
0.0990739
0.0973772
0.0956951
0.0940284
0.0923777
0.0907437
0.0891272
0.0875286
0.0859485
0.0843874
0.0828458
0.0813242
0.0798228
0.0783421
0.0768823
0.0754438
0.0740267
0.0726314
0.0712578
0.0699063
0.0685769
0.0672698
0.0659849
0.0647224
0.0634823
0.0622645
0.0610691
0.0598961
0.0587455
0.0576172
0.0565112
0.0554277
0.0543665
0.053328
0.0523122
0.0513195
0.0503506
0.0494061
0.0484872
0.0475957
0.0467338
0.0459043
0.0451114
0.0443585
0.0435877
0.00251513
0.0101942
0.0139832
0.0164677
0.0184185
0.0200916
0.0216064
0.023032
0.0244133
0.0257811
0.0271576
0.0285592
0.0299976
0.0314814
0.0330164
0.034607
0.0362563
0.0379665
0.0397393
0.0415762
0.0434783
0.0454465
0.0474817
0.0495841
0.0517544
0.0539929
0.0562998
0.0586749
0.0611177
0.0636273
0.0662024
0.0688413
0.0715419
0.0743017
0.0771177
0.0799864
0.082904
0.0858663
0.0888686
0.0919059
0.0949727
0.0980635
0.101172
0.104293
0.107419
0.110543
0.113661
0.116763
0.119845
0.122899
0.125919
0.128898
0.131831
0.13471
0.13753
0.140286
0.142971
0.145582
0.148113
0.150559
0.152918
0.155184
0.157355
0.159427
0.161398
0.163265
0.165026
0.166679
0.168224
0.169659
0.170982
0.172195
0.173295
0.174285
0.175163
0.175931
0.176588
0.177137
0.177579
0.177915
0.178146
0.178275
0.178303
0.178235
0.178068
0.177806
0.177452
0.17701
0.176481
0.175868
0.175175
0.174403
0.173556
0.172636
0.171647
0.170591
0.169472
0.168291
0.167053
0.165759
0.164412
0.163016
0.161573
0.160086
0.158557
0.156989
0.155385
0.153747
0.152078
0.15038
0.148655
0.146906
0.145136
0.143345
0.141537
0.139713
0.137875
0.136026
0.134168
0.132301
0.130429
0.128552
0.126672
0.124792
0.122912
0.121034
0.11916
0.11729
0.115427
0.113571
0.111724
0.109886
0.10806
0.106245
0.104443
0.102656
0.100883
0.0991254
0.0973846
0.0956609
0.093955
0.0922677
0.0905995
0.088951
0.0873227
0.085715
0.0841283
0.0825632
0.0810198
0.0794986
0.0779997
0.0765234
0.07507
0.0736396
0.0722322
0.0708482
0.0694874
0.0681501
0.0668362
0.0655457
0.0642786
0.0630351
0.0618149
0.0606181
0.0594448
0.0582948
0.0571683
0.0560652
0.0549859
0.0539303
0.0528991
0.0518926
0.0509117
0.0499576
0.0490318
0.0481364
0.047274
0.0464479
0.0456591
0.0448621
0.00249935
0.0102051
0.0139966
0.0164989
0.0184749
0.0201789
0.0217279
0.0231887
0.0246045
0.0260059
0.0274155
0.0288499
0.0303215
0.0318396
0.0334112
0.0350415
0.0367346
0.0384937
0.0403214
0.0422196
0.0441902
0.0462343
0.0483531
0.0505477
0.0528191
0.0551678
0.0575941
0.0600976
0.0626775
0.0653327
0.0680615
0.0708615
0.07373
0.0766638
0.0796591
0.0827115
0.0858162
0.0889682
0.0921616
0.0953904
0.0986485
0.101929
0.105225
0.10853
0.111837
0.115138
0.118426
0.121694
0.124934
0.128141
0.131306
0.134424
0.137487
0.14049
0.143426
0.146291
0.149078
0.151783
0.154401
0.156928
0.159359
0.161692
0.163924
0.16605
0.168069
0.169979
0.171777
0.173463
0.175034
0.176491
0.177832
0.179057
0.180166
0.18116
0.182039
0.182803
0.183453
0.183992
0.184419
0.184738
0.184948
0.185053
0.185054
0.184958
0.184757
0.184459
0.184067
0.183583
0.18301
0.182351
0.181609
0.180787
0.179886
0.178911
0.177865
0.17675
0.175569
0.174325
0.173022
0.171661
0.170247
0.168781
0.167267
0.165708
0.164106
0.162464
0.160785
0.159071
0.157325
0.155549
0.153746
0.151919
0.150069
0.148199
0.146312
0.144408
0.142491
0.140562
0.138624
0.136678
0.134727
0.132771
0.130813
0.128855
0.126898
0.124943
0.122992
0.121047
0.119109
0.117179
0.115258
0.113348
0.11145
0.109564
0.107693
0.105836
0.103995
0.102171
0.100364
0.0985757
0.0968059
0.0950557
0.0933257
0.0916163
0.0899282
0.0882618
0.0866175
0.0849957
0.0833967
0.0818209
0.0802685
0.0787398
0.0772349
0.075754
0.0742973
0.0728648
0.0714566
0.0700727
0.0687133
0.0673783
0.0660676
0.0647814
0.0635195
0.062282
0.0610687
0.0598799
0.0587153
0.0575752
0.0564598
0.0553691
0.0543036
0.0532639
0.0522506
0.0512651
0.0503086
0.0493832
0.0484908
0.0476344
0.0468134
0.0459918
0.00246069
0.0101532
0.013919
0.0164167
0.0183982
0.0201148
0.0216824
0.0231674
0.0246134
0.0260512
0.0275001
0.0289747
0.0304884
0.0320516
0.0336722
0.0353564
0.0371093
0.0389346
0.0408354
0.0428142
0.0448733
0.0470147
0.0492402
0.051551
0.0539484
0.0564328
0.0590039
0.0616612
0.0644033
0.0672282
0.0701336
0.0731162
0.0761723
0.0792974
0.0824866
0.0857345
0.0890351
0.092382
0.0957685
0.0991874
0.102631
0.106093
0.109565
0.113038
0.116506
0.119961
0.123395
0.126801
0.130171
0.133498
0.136775
0.139996
0.143154
0.146243
0.149258
0.152193
0.155043
0.157804
0.160471
0.16304
0.165508
0.167872
0.170128
0.172274
0.174309
0.176229
0.178034
0.179723
0.181293
0.182746
0.18408
0.185295
0.186391
0.187369
0.18823
0.188973
0.189602
0.190115
0.190516
0.190806
0.190986
0.191058
0.191027
0.190894
0.190655
0.190317
0.189884
0.189357
0.18874
0.188035
0.187245
0.186374
0.185423
0.184397
0.183297
0.182127
0.18089
0.17959
0.178228
0.176808
0.175333
0.173806
0.172229
0.170606
0.16894
0.167232
0.165487
0.163707
0.161894
0.16005
0.158179
0.156284
0.154365
0.152426
0.150469
0.148497
0.14651
0.144513
0.142506
0.140491
0.138471
0.136447
0.134421
0.132395
0.13037
0.128349
0.126332
0.124322
0.122319
0.120324
0.11834
0.116367
0.114407
0.112461
0.110529
0.108612
0.106713
0.10483
0.102966
0.101122
0.0992965
0.0974919
0.0957083
0.0939463
0.0922065
0.0904893
0.088795
0.0871242
0.0854772
0.0838541
0.0822554
0.0806813
0.0791318
0.0776073
0.0761077
0.0746333
0.073184
0.0717599
0.070361
0.0689874
0.067639
0.0663158
0.0650177
0.0637448
0.062497
0.0612744
0.0600769
0.0589046
0.0577577
0.0566365
0.0555412
0.0544724
0.0534309
0.0524177
0.0514342
0.050482
0.0495629
0.0486793
0.0478298
0.0469858
0.00239173
0.0100162
0.0137335
0.0162177
0.0182027
0.0199347
0.021527
0.0230433
0.0245243
0.0259985
0.0274885
0.029012
0.0305818
0.0322079
0.0338986
0.0356605
0.0374988
0.0394179
0.0414218
0.0435136
0.0456959
0.0479712
0.0503411
0.0528071
0.0553698
0.0580288
0.0607834
0.0636318
0.0665717
0.0695999
0.0727124
0.0759047
0.0791715
0.0825068
0.0859044
0.0893572
0.092858
0.0963991
0.0999725
0.10357
0.107184
0.110806
0.114427
0.11804
0.121637
0.125209
0.128749
0.13225
0.135704
0.139105
0.142446
0.14572
0.148923
0.152049
0.155091
0.158047
0.16091
0.163678
0.166346
0.168911
0.17137
0.17372
0.175959
0.178084
0.180095
0.181989
0.183765
0.185422
0.186961
0.188379
0.189678
0.190856
0.191916
0.192856
0.193678
0.194383
0.194972
0.195446
0.195807
0.196056
0.196195
0.196226
0.196157
0.195979
0.195697
0.195316
0.19484
0.194269
0.193607
0.192858
0.192023
0.191105
0.190108
0.189034
0.187886
0.186668
0.185382
0.184031
0.182618
0.181147
0.17962
0.17804
0.176411
0.174734
0.173013
0.171251
0.169451
0.167615
0.165745
0.163846
0.161918
0.159966
0.15799
0.155994
0.15398
0.15195
0.149906
0.147851
0.145787
0.143715
0.141638
0.139557
0.137475
0.135393
0.133313
0.131237
0.129165
0.1271
0.125043
0.122996
0.120959
0.118934
0.116922
0.114925
0.112943
0.110977
0.109028
0.107098
0.105186
0.103295
0.101423
0.0995735
0.0977453
0.0959395
0.0941565
0.0923969
0.090661
0.0889493
0.087262
0.0855995
0.0839621
0.0823499
0.0807632
0.0792021
0.0776667
0.076157
0.0746733
0.0732154
0.0717835
0.0703774
0.0689972
0.0676429
0.0663144
0.0650117
0.0637347
0.0624835
0.0612581
0.0600586
0.0588851
0.0577379
0.0566173
0.0555238
0.0544581
0.0534211
0.0524142
0.0514388
0.0504962
0.0495885
0.0487141
0.0478503
0.00229794
0.0097986
0.0134593
0.0159257
0.0179125
0.0196602
0.0212801
0.0228349
0.0243654
0.0259005
0.0274622
0.0290623
0.0307153
0.0324339
0.034228
0.0361056
0.0380723
0.0401328
0.0422913
0.0445508
0.0469138
0.0493821
0.0519569
0.0546383
0.0574257
0.0603172
0.0633103
0.0664014
0.0695861
0.072859
0.0762143
0.0796452
0.0831445
0.0867045
0.0903171
0.0939738
0.0976662
0.101385