/*--------------------------------*- C++ -*----------------------------------*\
  =========                 |
  \\      /  F ield         | OpenFOAM: The Open Source CFD Toolbox
   \\    /   O peration     | Website:  https://openfoam.org
    \\  /    A nd           | Version:  7
     \\/     M anipulation  |
\*---------------------------------------------------------------------------*/
FoamFile
{
    version     2.0;
    format      ascii;
    class       volScalarField;
    location    "200";
    object      nut;
}
// * * * * * * * * * * * * * * * * * * * * * * * * * * * * * * * * * * * * * //

dimensions      [0 2 -1 0 0 0 0];

internalField   nonuniform List<scalar> 
12225
(
2.66868e-05
1.33563e-05
1.14699e-05
1.06188e-05
1.00239e-05
9.52849e-06
9.09552e-06
8.71073e-06
8.36586e-06
8.05531e-06
7.77483e-06
7.52104e-06
7.29133e-06
7.08376e-06
6.89758e-06
6.73466e-06
6.59203e-06
6.58261e-06
0.000154686
0.0001167
0.00011064
0.000106661
0.000103547
0.000100809
9.83253e-05
9.60474e-05
9.39473e-05
9.20066e-05
9.02109e-05
8.85493e-05
8.70139e-05
8.55994e-05
8.43172e-05
8.31399e-05
8.2372e-05
8.13644e-05
0.000330884
0.000254482
0.000238612
0.000230175
0.000223868
0.000218368
0.000213347
0.000208688
0.000204341
0.000200276
0.000196471
0.000192914
0.000189596
0.000186511
0.000183689
0.000181107
0.000179292
0.000176966
0.000496383
0.000391468
0.000363051
0.000349796
0.000340477
0.00033259
0.000325467
0.000318873
0.000312709
0.000306926
0.000301493
0.000296392
0.000291613
0.000287151
0.000283038
0.000279279
0.000276339
0.000273256
0.000628827
0.000515814
0.000479267
0.000460367
0.000448446
0.000438594
0.000429818
0.000421738
0.000414191
0.000407103
0.000400433
0.000394156
0.000388259
0.000382735
0.000377609
0.000372909
0.000368957
0.000365172
0.000725426
0.000622345
0.000583628
0.000560828
0.000546508
0.000535115
0.000525091
0.000515915
0.000507363
0.000499329
0.000491758
0.00048462
0.000477897
0.000471581
0.000465688
0.000460255
0.000455481
0.000451019
0.000790594
0.000709488
0.000673204
0.000650762
0.000633999
0.00062168
0.000610842
0.000600946
0.000591728
0.000583062
0.000574881
0.000567154
0.000559859
0.000552985
0.000546544
0.000540571
0.000535178
0.000530137
0.000830776
0.000777987
0.000746317
0.000728534
0.000710667
0.000697939
0.000686793
0.000676583
0.000667043
0.000658046
0.000649529
0.000641464
0.000633828
0.000626613
0.000619825
0.000613494
0.00060768
0.000602208
0.000853124
0.000827455
0.000804928
0.000790822
0.000776501
0.000763406
0.000752617
0.000742569
0.000733087
0.00072408
0.000715505
0.000707352
0.000699606
0.000692259
0.00068532
0.000678815
0.000672771
0.000667039
0.000863391
0.00086007
0.00084889
0.000838104
0.000829504
0.000817623
0.000807907
0.000798564
0.000789573
0.000780913
0.000772582
0.000764616
0.000757001
0.000749742
0.000742855
0.000736364
0.00073028
0.000724469
0.000866013
0.000878378
0.000878141
0.000873125
0.000868509
0.000860025
0.000851684
0.00084381
0.000835933
0.000828129
0.000820467
0.000812998
0.000805782
0.000798851
0.000792233
0.000785958
0.000780032
0.00077433
0.000864412
0.000885112
0.00089243
0.000893408
0.000892186
0.000887867
0.000881634
0.000875453
0.000868838
0.000862093
0.000855378
0.000848726
0.000842204
0.000835868
0.000829762
0.000823898
0.000818309
0.000812889
0.000862641
0.000884214
0.000897633
0.000904086
0.000906304
0.000905475
0.000902869
0.000898708
0.000893776
0.000888382
0.000882742
0.000877006
0.00087128
0.000865641
0.00086015
0.000854883
0.000849845
0.000844907
0.000861192
0.000877713
0.000893976
0.000905306
0.000910774
0.000913709
0.000915562
0.000914058
0.000911435
0.000908028
0.000904103
0.000899858
0.000895439
0.000890956
0.000886489
0.000882094
0.000877812
0.000873539
0.000857329
0.000870057
0.000884166
0.000895803
0.000904314
0.000911112
0.000915806
0.000917641
0.000917963
0.000917174
0.00091558
0.000913418
0.000910866
0.00090806
0.000905104
0.000902076
0.000899034
0.000895885
0.000854357
0.000861249
0.000870374
0.000879982
0.000888769
0.000896482
0.000902856
0.000907563
0.000910835
0.000912943
0.000914115
0.000914549
0.00091441
0.00091383
0.00091292
0.000911766
0.000910445
0.000908877
0.000852299
0.000854198
0.000857996
0.000863259
0.000869283
0.000875564
0.000881734
0.000887456
0.000892549
0.000896927
0.000900599
0.000903611
0.000906029
0.000907923
0.000909361
0.00091041
0.000911138
0.00091148
0.000851228
0.000850443
0.00085105
0.00085307
0.000856287
0.000860432
0.000865221
0.000870358
0.000875581
0.00088068
0.000885505
0.000889959
0.000893987
0.000897566
0.000900697
0.000903397
0.000905701
0.000907631
0.000851526
0.000851387
0.000852709
0.000855421
0.000859222
0.000863799
0.000868846
0.000874064
0.000879212
0.000884118
0.000888669
0.000892798
0.000896476
0.000899698
0.000902477
0.000904837
0.000906799
0.000908437
0.0008536
0.000858528
0.000865676
0.0008737
0.000881666
0.000889102
0.000895649
0.000900991
0.00090517
0.000908305
0.000910541
0.000912026
0.000912893
0.000913256
0.000913213
0.000912842
0.000912205
0.000911435
0.000857232
0.000869163
0.000883407
0.000894621
0.000903417
0.000910476
0.000915303
0.000917431
0.000918037
0.000917505
0.000916133
0.000914157
0.000911758
0.000909071
0.000906199
0.000903215
0.000900177
0.000897196
0.000862713
0.000878567
0.000896231
0.000905271
0.000909797
0.000910848
0.000910559
0.000907768
0.000904014
0.000899634
0.000894837
0.000889825
0.000884731
0.00087964
0.000874613
0.000869689
0.000864903
0.000860339
0.000864653
0.00088297
0.000888724
0.000887964
0.0008859
0.000880621
0.000873129
0.000866327
0.000859253
0.000852124
0.000845202
0.000838454
0.000831872
0.000825476
0.000819284
0.00081331
0.000807573
0.000802125
0.000862604
0.000858982
0.000847789
0.000836199
0.000827766
0.000815893
0.000806364
0.000797318
0.0007886
0.000780171
0.000771964
0.000764023
0.000756389
0.000749085
0.000742111
0.000735462
0.000729141
0.00072319
0.000840181
0.00079821
0.000769609
0.00075375
0.000736729
0.000723751
0.000712653
0.000702411
0.000692821
0.000683766
0.000675155
0.000666992
0.000659254
0.000651908
0.00064493
0.000638304
0.00063203
0.000626155
0.000780034
0.000694811
0.000658716
0.000635228
0.000618289
0.000605916
0.000595184
0.000585396
0.000576278
0.000567716
0.000559628
0.000551985
0.00054476
0.000537925
0.000531462
0.000525346
0.000519562
0.000514178
0.000661796
0.000551315
0.00051347
0.000491444
0.000478684
0.000468284
0.000459124
0.000450747
0.000442953
0.000435633
0.000428729
0.000422212
0.00041606
0.000410251
0.000404766
0.000399584
0.00039469
0.000390169
0.000476676
0.000372809
0.000345026
0.000332024
0.000323123
0.000315639
0.000308886
0.000302642
0.000296815
0.000291351
0.000286214
0.000281383
0.000276838
0.000272562
0.00026854
0.000264748
0.000261176
0.000257908
0.000245014
0.000182903
0.000171338
0.000164927
0.000160114
0.000155933
0.000152127
0.000148621
0.000145376
0.000142364
0.000139563
0.000136955
0.000134526
0.00013226
0.000130146
0.000128168
0.000126314
0.000124643
5.50643e-05
3.28705e-05
2.82514e-05
2.60894e-05
2.46001e-05
2.33811e-05
2.23132e-05
2.13563e-05
2.04908e-05
1.97042e-05
1.89869e-05
1.83311e-05
1.77305e-05
1.71795e-05
1.66724e-05
1.62077e-05
1.57729e-05
1.53858e-05
1.12598e-08
3.78896e-07
7.59833e-07
1.0963e-06
1.37012e-06
1.61248e-06
1.86456e-06
2.12684e-06
2.41155e-06
2.73034e-06
3.09203e-06
3.50445e-06
3.97634e-06
4.51826e-06
5.1413e-06
5.85411e-06
6.65937e-06
7.55562e-06
8.53781e-06
9.59872e-06
1.07306e-05
1.19257e-05
1.31754e-05
1.44726e-05
1.58075e-05
1.71738e-05
1.85662e-05
1.99802e-05
2.14121e-05
2.28585e-05
2.43167e-05
2.57844e-05
2.72592e-05
2.87392e-05
3.02226e-05
3.17077e-05
3.31928e-05
3.46763e-05
3.61565e-05
3.76317e-05
3.91002e-05
4.05603e-05
4.20102e-05
4.34479e-05
4.48716e-05
4.62792e-05
4.76686e-05
4.90377e-05
5.03844e-05
5.17064e-05
5.3002e-05
5.42694e-05
5.55078e-05
5.67178e-05
5.79027e-05
5.90513e-05
6.01632e-05
6.12373e-05
6.22726e-05
6.32673e-05
6.42204e-05
6.51301e-05
6.59954e-05
6.68148e-05
6.75876e-05
6.83124e-05
6.89886e-05
6.96153e-05
7.01921e-05
7.07181e-05
7.11934e-05
7.16175e-05
7.19903e-05
7.23119e-05
7.25824e-05
7.2802e-05
7.29712e-05
7.30903e-05
7.316e-05
7.31806e-05
7.31526e-05
7.30694e-05
7.29469e-05
7.27812e-05
7.25705e-05
7.2316e-05
7.20192e-05
7.16815e-05
7.13043e-05
7.08888e-05
7.04366e-05
6.9949e-05
6.94273e-05
6.88731e-05
6.82877e-05
6.76726e-05
6.70292e-05
6.63591e-05
6.56636e-05
6.49442e-05
6.42024e-05
6.34395e-05
6.26569e-05
6.18559e-05
6.10379e-05
6.02042e-05
5.93559e-05
5.84942e-05
5.76216e-05
5.67394e-05
5.5847e-05
5.49463e-05
5.40384e-05
5.31247e-05
5.22062e-05
5.1284e-05
5.03591e-05
4.94324e-05
4.8505e-05
4.75779e-05
4.66518e-05
4.57278e-05
4.48064e-05
4.38886e-05
4.2975e-05
4.20664e-05
4.11636e-05
4.02672e-05
3.93779e-05
3.84964e-05
3.76231e-05
3.67592e-05
3.59048e-05
3.50603e-05
3.42262e-05
3.34028e-05
3.25905e-05
3.17898e-05
3.1001e-05
3.02245e-05
2.94606e-05
2.87096e-05
2.79716e-05
2.72469e-05
2.65357e-05
2.58381e-05
2.51543e-05
2.44845e-05
2.38286e-05
2.31869e-05
2.25593e-05
2.19457e-05
2.13463e-05
2.07608e-05
2.01895e-05
1.96322e-05
1.90889e-05
1.85595e-05
1.80441e-05
1.75422e-05
1.70536e-05
1.65781e-05
1.61155e-05
1.56658e-05
1.52286e-05
1.48037e-05
1.43907e-05
1.39893e-05
1.3599e-05
1.32196e-05
1.285e-05
1.24906e-05
1.21417e-05
1.17997e-05
1.1468e-05
1.11326e-05
1.08239e-05
1.04618e-05
1.01958e-05
9.32307e-06
6.71907e-08
5.3107e-06
1.5976e-05
2.41793e-05
2.9269e-05
3.22402e-05
3.3955e-05
3.51999e-05
3.63678e-05
3.76206e-05
3.90072e-05
4.05445e-05
4.22234e-05
4.40574e-05
4.60899e-05
4.8388e-05
5.09337e-05
5.37211e-05
5.67358e-05
5.99519e-05
6.33594e-05
6.69766e-05
7.07875e-05
7.47733e-05
7.89157e-05
8.31959e-05
8.75962e-05
9.20997e-05
9.66905e-05
0.000101354
0.000106077
0.000110846
0.000115651
0.000120481
0.000125328
0.000130182
0.000135038
0.000139887
0.000144723
0.000149542
0.000154336
0.000159101
0.000163832
0.000168523
0.00017317
0.000177766
0.000182306
0.000186784
0.000191192
0.000195521
0.00019976
0.000203892
0.000207896
0.000211734
0.000215339
0.0002188
0.000222156
0.000225408
0.000228555
0.000231594
0.000234522
0.000237334
0.000240029
0.000242604
0.000245055
0.000247381
0.00024958
0.000251649
0.000253589
0.000255396
0.000257072
0.000258615
0.000260025
0.000261302
0.000262447
0.000263461
0.000264344
0.000265099
0.000265727
0.000266231
0.000266616
0.000266868
0.000266956
0.000266979
0.000266879
0.000266663
0.000266336
0.000265899
0.000265358
0.000264714
0.000263971
0.000263133
0.000262201
0.00026118
0.000260072
0.000258881
0.000257609
0.00025626
0.000254837
0.000253343
0.000251782
0.000250156
0.000248468
0.000246722
0.000244921
0.000243066
0.00024116
0.000239206
0.000237209
0.000235171
0.000233092
0.000230975
0.000228824
0.000226642
0.00022443
0.000222192
0.000219928
0.000217643
0.000215337
0.000213013
0.000210672
0.000208317
0.00020595
0.000203572
0.000201186
0.000198792
0.000196394
0.000193992
0.000191589
0.000189185
0.000186782
0.000184382
0.000181985
0.000179594
0.000177211
0.000174835
0.000172469
0.000170113
0.00016777
0.00016544
0.000163125
0.000160825
0.000158541
0.000156274
0.000154025
0.000151794
0.000149583
0.000147392
0.000145223
0.000143075
0.000140948
0.000138843
0.00013676
0.0001347
0.000132665
0.000130653
0.000128666
0.000126703
0.000124762
0.000122846
0.000120953
0.000119085
0.000117242
0.000115423
0.000113629
0.000111857
0.000110109
0.000108382
0.000106676
0.000104988
0.000103322
0.000101644
9.99272e-05
9.81889e-05
9.63989e-05
9.45589e-05
9.26006e-05
9.02408e-05
8.78844e-05
8.05451e-05
1.59199e-07
1.10227e-05
3.04442e-05
4.5994e-05
5.69807e-05
6.45395e-05
6.97863e-05
7.36632e-05
7.68485e-05
7.97736e-05
8.26865e-05
8.57203e-05
8.89869e-05
9.25596e-05
9.6465e-05
0.000100686
0.000105271
0.000110243
0.000115611
0.000121385
0.000127571
0.000134058
0.000140817
0.000147819
0.00015503
0.00016242
0.000169961
0.000177623
0.000185382
0.000193216
0.000201103
0.000209027
0.000216971
0.000224921
0.000232867
0.000240796
0.0002487
0.00025657
0.000264399
0.000272178
0.000279902
0.000287563
0.000295155
0.000302671
0.000310103
0.000317443
0.000324683
0.000331814
0.000338824
0.000345702
0.000352434
0.000359004
0.000365396
0.000371588
0.000377578
0.000383394
0.000389047
0.000394537
0.000399859
0.000405011
0.000409987
0.000414782
0.000419392
0.000423813
0.000428042
0.000432075
0.000435909
0.000439543
0.000442973
0.000446198
0.000449218
0.000452031
0.000454637
0.000457037
0.00045923
0.000461219
0.000463004
0.000464587
0.00046597
0.000467158
0.000468152
0.000468974
0.000469519
0.000469925
0.000470159
0.000470208
0.000470077
0.000469772
0.000469297
0.000468655
0.000467852
0.000466892
0.000465779
0.000464517
0.000463112
0.000461567
0.000459886
0.000458071
0.000456131
0.00045407
0.000451891
0.000449599
0.000447199
0.000444694
0.000442089
0.000439388
0.000436593
0.00043371
0.000430741
0.000427692
0.000424565
0.000421364
0.000418095
0.00041476
0.000411363
0.000407909
0.0004044
0.00040084
0.000397233
0.00039358
0.000389886
0.000386154
0.000382385
0.000378585
0.000374754
0.000370897
0.000367016
0.000363114
0.000359193
0.000355255
0.000351304
0.000347342
0.000343369
0.000339389
0.000335405
0.00033142
0.000327434
0.000323451
0.000319472
0.000315499
0.000311535
0.000307581
0.00030364
0.000299711
0.000295798
0.000291901
0.000288022
0.000284163
0.000280325
0.00027651
0.000272715
0.000268942
0.000265194
0.000261472
0.000257777
0.000254109
0.00025047
0.00024686
0.000243277
0.000239721
0.000236192
0.000232694
0.000229225
0.000225787
0.000222377
0.000218994
0.000215637
0.000212306
0.000209001
0.000205713
0.000202446
0.000199179
0.000195882
0.000192552
0.000189145
0.000185663
0.000182022
0.000177925
0.000173811
0.000163217
2.76811e-07
1.59454e-05
4.20538e-05
6.31075e-05
7.83465e-05
8.92554e-05
9.72454e-05
0.000103436
0.000108653
0.000113465
0.000118237
0.00012319
0.000128458
0.000134115
0.000140202
0.000146733
0.000153724
0.000161173
0.000169071
0.000177395
0.000186078
0.000195107
0.000204429
0.000214
0.000223782
0.000233738
0.000243834
0.00025404
0.000264327
0.000274673
0.000285054
0.000295452
0.00030585
0.000316235
0.000326593
0.000336913
0.000347186
0.000357403
0.000367554
0.000377632
0.000387629
0.000397537
0.000407349
0.000417056
0.00042665
0.000436123
0.000445464
0.000454663
0.000463708
0.000472588
0.000481288
0.000489795
0.000498093
0.000506178
0.000514056
0.000521733
0.00052921
0.000536485
0.000543551
0.000550403
0.000557036
0.000563444
0.000569621
0.000575562
0.000581263
0.000586719
0.000591928
0.000596885
0.000601588
0.000606035
0.000610224
0.000614154
0.000617825
0.000621235
0.000624386
0.000627278
0.000629912
0.00063229
0.000634414
0.000636288
0.000637941
0.00063933
0.000640401
0.000641277
0.000641928
0.000642343
0.000642527
0.000642484
0.000642219
0.000641737
0.000641042
0.000640141
0.000639038
0.000637738
0.000636246
0.000634569
0.000632715
0.000630694
0.000628504
0.000626149
0.000623633
0.000620962
0.000618141
0.000615174
0.000612066
0.000608822
0.000605448
0.000601946
0.000598322
0.000594582
0.000590728
0.000586767
0.000582703
0.000578541
0.000574287
0.000569944
0.000565518
0.000561012
0.00055643
0.000551778
0.000547058
0.000542276
0.000537435
0.000532538
0.000527591
0.000522596
0.000517557
0.000512479
0.000507364
0.000502216
0.000497039
0.000491835
0.000486607
0.000481357
0.000476092
0.000470814
0.000465526
0.000460232
0.000454933
0.000449632
0.000444334
0.000439039
0.00043375
0.000428471
0.000423203
0.000417948
0.000412709
0.000407487
0.000402286
0.000397106
0.000391948
0.000386813
0.000381706
0.000376627
0.000371578
0.000366561
0.000361576
0.000356625
0.000351704
0.000346813
0.000341954
0.00033713
0.000332342
0.00032759
0.00032287
0.000318181
0.000313523
0.000308896
0.000304298
0.00029972
0.000295162
0.000290611
0.000286042
0.000281443
0.000276771
0.000272015
0.000267085
0.000261802
0.000256373
0.000244803
4.01414e-07
2.00573e-05
5.17206e-05
7.74391e-05
9.66297e-05
0.000110785
0.000121502
0.000130039
0.00013734
0.000144076
0.000150699
0.000157493
0.000164629
0.000172201
0.000180253
0.000188801
0.000197842
0.000207357
0.000217319
0.000227689
0.000238417
0.00024947
0.000260801
0.000272362
0.000284115
0.00029602
0.000308043
0.000320155
0.000332326
0.000344535
0.000356759
0.000368981
0.000381182
0.000393347
0.000405467
0.00041753
0.000429526
0.000441447
0.000453282
0.000465025
0.000476666
0.000488198
0.000499613
0.000510903
0.000522062
0.000533079
0.000543947
0.000554655
0.000565194
0.000575551
0.000585713
0.000595667
0.000605407
0.000614932
0.00062424
0.00063333
0.000642197
0.000650837
0.000659244
0.000667411
0.000675331
0.000682999
0.000690408
0.000697553
0.000704428
0.000711029
0.000717351
0.000723391
0.000729145
0.00073461
0.000739785
0.000744667
0.000749256
0.000753549
0.000757548
0.000761252
0.000764662
0.00076778
0.000770605
0.000773162
0.000775445
0.00077741
0.00077904
0.000780434
0.000781559
0.000782411
0.000782992
0.000783309
0.000783364
0.000783164
0.000782714
0.000782017
0.00078108
0.000779909
0.000778507
0.000776881
0.000775035
0.000772976
0.00077071
0.000768242
0.000765577
0.000762723
0.000759683
0.000756463
0.00075307
0.000749507
0.000745781
0.000741897
0.00073786
0.000733675
0.000729347
0.000724883
0.000720287
0.000715566
0.000710725
0.000705769
0.000700703
0.000695533
0.000690263
0.000684899
0.000679446
0.000673908
0.000668289
0.000662596
0.000656832
0.000651002
0.00064511
0.000639162
0.000633161
0.000627112
0.000621019
0.000614886
0.000608723
0.000602534
0.000596317
0.000590077
0.000583817
0.000577539
0.000571248
0.000564947
0.00055864
0.000552329
0.000546019
0.000539711
0.00053341
0.000527118
0.000520838
0.000514572
0.000508323
0.000502095
0.000495886
0.0004897
0.000483541
0.00047741
0.00047131
0.000465243
0.000459209
0.000453214
0.000447256
0.000441333
0.000435448
0.000429604
0.0004238
0.000418038
0.00041231
0.000406615
0.000400958
0.000395335
0.000389747
0.000384183
0.00037864
0.000373113
0.000367579
0.000362024
0.000356412
0.000350722
0.000344875
0.000338728
0.000332652
0.000320297
5.17214e-07
2.33513e-05
5.95202e-05
8.93051e-05
0.000112192
0.000129528
0.000142991
0.000153926
0.000163353
0.000172018
0.000180439
0.000188956
0.000197779
0.000207024
0.000216747
0.000226964
0.000237667
0.000248832
0.000260418
0.000272368
0.000284652
0.000297243
0.000310084
0.000323129
0.000336337
0.000349669
0.000363092
0.000376576
0.00039009
0.00040362
0.000417146
0.000430653
0.000444132
0.000457582
0.000470971
0.000484283
0.000497507
0.000510632
0.00052365
0.000536553
0.000549332
0.000561981
0.000574489
0.000586854
0.00059907
0.00061113
0.000623025
0.00063475
0.000646294
0.000657653
0.000668821
0.000679794
0.000690565
0.000701123
0.000711463
0.000721578
0.000731461
0.000741108
0.00075051
0.00075966
0.000768552
0.000777179
0.000785534
0.000793612
0.000801405
0.000808909
0.000816119
0.00082303
0.000829639
0.000835941
0.000841934
0.000847616
0.000852984
0.000858036
0.000862773
0.000867193
0.000871296
0.000875083
0.000878556
0.000881752
0.00088461
0.000887147
0.00088933
0.000891248
0.000892865
0.000894181
0.000895199
0.000895924
0.00089636
0.000896512
0.000896385
0.000895982
0.000895311
0.000894374
0.000893179
0.000891731
0.000890033
0.000888094
0.000885917
0.00088351
0.000880877
0.000878025
0.00087496
0.000871686
0.00086821
0.000864538
0.000860675
0.000856627
0.0008524
0.000847998
0.000843429
0.000838697
0.000833809
0.000828771
0.000823589
0.000818268
0.000812815
0.000807234
0.000801533
0.000795715
0.000789788
0.000783755
0.000777623
0.000771397
0.000765082
0.000758684
0.000752208
0.000745658
0.00073904
0.000732359
0.000725619
0.000718826
0.000711983
0.000705097
0.000698172
0.000691212
0.000684223
0.000677208
0.000670171
0.000663116
0.000656047
0.000648969
0.000641885
0.000634799
0.000627714
0.000620634
0.000613562
0.000606501
0.000599455
0.000592426
0.00058542
0.000578442
0.00057149
0.000564565
0.000557671
0.000550808
0.000543979
0.000537188
0.000530434
0.000523719
0.000517044
0.000510414
0.000503829
0.000497288
0.000490792
0.000484339
0.000477929
0.000471561
0.000465232
0.000458928
0.000452651
0.000446396
0.000440147
0.000433888
0.000427593
0.000421236
0.000414755
0.000408021
0.000401496
0.000389277
6.14815e-07
2.58446e-05
6.5538e-05
9.88664e-05
0.000125092
0.000145484
0.000161664
0.000175006
0.000186569
0.000197146
0.000207304
0.000217428
0.000227763
0.000238455
0.00024958
0.000261153
0.000273154
0.00028554
0.000298312
0.000311464
0.000324955
0.00033869
0.000352631
0.00036674
0.000380979
0.00039531
0.000409702
0.000424141
0.000438625
0.000453107
0.000467557
0.000481953
0.000496269
0.000510493
0.000524627
0.000538664
0.000552599
0.000566424
0.000580134
0.000593725
0.000607191
0.000620528
0.000633734
0.000646798
0.000659715
0.000672477
0.000685079
0.000697514
0.000709776
0.000721859
0.000733756
0.000745461
0.000756967
0.000768267
0.000779352
0.000790215
0.000800849
0.000811247
0.0008214
0.000831301
0.000840943
0.000850318
0.000859418
0.000868237
0.000876769
0.000885007
0.000892945
0.000900579
0.000907902
0.000914912
0.000921604
0.000927975
0.000934022
0.000939742
0.000945134
0.000950197
0.000954929
0.000959329
0.000963415
0.000967187
0.000970604
0.000973691
0.000976417
0.000978854
0.000980967
0.000982759
0.000984233
0.000985393
0.000986243
0.000986787
0.00098703
0.000986977
0.000986631
0.000985999
0.000985085
0.000983895
0.000982433
0.000980706
0.000978718
0.000976476
0.000973986
0.000971253
0.000968282
0.000965081
0.000961654
0.000958008
0.000954149
0.000950082
0.000945813
0.000941349
0.000936695
0.000931858
0.000926843
0.000921657
0.000916307
0.000910797
0.000905136
0.000899328
0.000893379
0.000887297
0.000881086
0.000874752
0.000868302
0.000861742
0.000855076
0.000848311
0.000841453
0.000834507
0.000827478
0.000820373
0.000813197
0.000805954
0.00079865
0.000791291
0.000783881
0.000776427
0.000768933
0.000761403
0.000753843
0.000746257
0.000738649
0.000731024
0.000723386
0.00071574
0.000708089
0.000700438
0.00069279
0.000685148
0.000677517
0.0006699
0.0006623
0.00065472
0.000647163
0.000639633
0.000632131
0.000624661
0.000617225
0.000609826
0.000602464
0.000595143
0.000587863
0.000580632
0.00057345
0.000566315
0.000559232
0.000552198
0.000545213
0.000538277
0.000531389
0.000524538
0.000517725
0.000510944
0.00050418
0.000497416
0.000490637
0.000483818
0.000476912
0.000469811
0.000462898
0.000451281
6.9014e-07
2.76124e-05
6.99299e-05
0.000106305
0.000135427
0.000158671
0.000177463
0.000193155
0.000206818
0.000219264
0.000231088
0.000242714
0.000254414
0.000266329
0.000278526
0.000291087
0.000304061
0.000317461
0.000331232
0.000345304
0.00035962
0.000374141
0.000388829
0.000403647
0.000418559
0.000433534
0.000448573
0.000463626
0.000478635
0.000493592
0.000508487
0.00052331
0.000538055
0.000552707
0.000567259
0.000581706
0.000596044
0.000610268
0.000624376
0.000638364
0.000652231
0.000665972
0.000679584
0.000693063
0.000706405
0.000719603
0.000732653
0.00074555
0.000758288
0.00077086
0.000783259
0.00079548
0.000807514
0.000819354
0.00083099
0.000842416
0.000853622
0.000864601
0.000875343
0.000885841
0.000896085
0.000906067
0.00091578
0.000925216
0.000934367
0.000943226
0.000951787
0.000960043
0.000967989
0.000975619
0.000982929
0.000989914
0.000996571
0.0010029
0.00100889
0.00101454
0.00101986
0.00102483
0.00102949
0.0010338
0.00103776
0.00104138
0.00104465
0.00104759
0.0010502
0.00105247
0.00105441
0.00105601
0.0010573
0.00105826
0.0010589
0.00105923
0.00105924
0.00105896
0.00105837
0.00105749
0.00105632
0.00105487
0.00105313
0.00105113
0.00104885
0.00104631
0.00104352
0.00104048
0.00103719
0.00103366
0.0010299
0.00102592
0.00102171
0.00101729
0.00101267
0.00100784
0.00100282
0.000997602
0.000992208
0.000986637
0.000980897
0.000974994
0.000968934
0.000962724
0.00095637
0.000949879
0.000943256
0.000936508
0.000929641
0.000922661
0.000915575
0.000908387
0.000901105
0.000893734
0.00088628
0.000878748
0.000871145
0.000863475
0.000855746
0.000847962
0.000840128
0.00083225
0.000824333
0.000816383
0.000808403
0.000800399
0.000792375
0.000784337
0.000776288
0.000768232
0.000760175
0.00075212
0.00074407
0.00073603
0.000728004
0.000719994
0.000712005
0.000704039
0.0006961
0.00068819
0.000680312
0.000672469
0.000664664
0.000656898
0.000649173
0.000641494
0.00063386
0.000626273
0.000618738
0.000611254
0.000603824
0.000596451
0.000589133
0.000581871
0.000574657
0.000567488
0.000560353
0.000553242
0.000546139
0.000539018
0.000531844
0.000524534
0.000517347
0.000506439
7.42744e-07
2.87563e-05
7.29009e-05
0.000111735
0.000143376
0.000169199
0.000190427
0.000208355
0.000224034
0.000238279
0.000251659
0.000264578
0.000277353
0.000290258
0.000303459
0.000316993
0.000330843
0.000344986
0.000359396
0.000374043
0.000388886
0.000403888
0.000419011
0.000434222
0.000449487
0.000464816
0.000480138
0.0004954
0.000510606
0.000525743
0.000540801
0.000555772
0.000570648
0.000585423
0.000600096
0.000614662
0.000629122
0.000643473
0.000657717
0.000671852
0.000685878
0.000699794
0.000713597
0.000727285
0.000740855
0.000754303
0.000767624
0.000780814
0.000793865
0.000806772
0.000819527
0.000832123
0.000844551
0.000856803
0.000868869
0.00088074
0.000892407
0.000903861
0.000915091
0.000926088
0.000936843
0.000947346
0.000957588
0.000967561
0.000977257
0.000986666
0.000995782
0.0010046
0.00101311
0.0010213
0.00102917
0.00103673
0.00104395
0.00105084
0.00105739
0.0010636
0.00106947
0.00107499
0.00108018
0.00108502
0.00108951
0.00109365
0.00109744
0.00110088
0.00110398
0.00110673
0.00110913
0.00111119
0.00111292
0.00111431
0.00111536
0.00111609
0.0011165
0.00111659
0.00111636
0.00111582
0.00111498
0.00111384
0.0011124
0.00111067
0.00110866
0.00110637
0.00110381
0.00110098
0.00109789
0.00109455
0.00109096
0.00108713
0.00108306
0.00107876
0.00107424
0.0010695
0.00106455
0.0010594
0.00105405
0.00104851
0.00104278
0.00103688
0.00103081
0.00102457
0.00101818
0.00101164
0.00100495
0.000998123
0.000991166
0.000984085
0.000976885
0.000969573
0.000962156
0.000954638
0.000947028
0.000939331
0.000931552
0.000923697
0.000915774
0.000907787
0.000899742
0.000891646
0.000883502
0.000875317
0.000867096
0.000858844
0.000850566
0.000842267
0.000833952
0.000825625
0.000817291
0.000808953
0.000800618
0.000792287
0.000783966
0.000775658
0.000767366
0.000759095
0.000750848
0.000742628
0.000734437
0.000726279
0.000718157
0.000710073
0.00070203
0.000694029
0.000686074
0.000678166
0.000670308
0.000662501
0.000654748
0.000647051
0.000639415
0.00063184
0.000624325
0.000616866
0.00060946
0.000602098
0.000594772
0.000587462
0.00058014
0.000572738
0.000565396
0.000555171
7.74381e-07
2.93739e-05
7.46467e-05
0.00011537
0.000149147
0.000177247
0.000200705
0.000220695
0.000238179
0.00025392
0.000268624
0.000282804
0.000296797
0.000310764
0.000324816
0.00033903
0.000353443
0.000368059
0.000382865
0.000397834
0.000412936
0.000428138
0.000443406
0.000458724
0.000474114
0.000489473
0.00050475
0.000519953
0.000535073
0.000550104
0.000565042
0.000579883
0.000594626
0.000609271
0.000623819
0.000638273
0.000652635
0.000666907
0.000681092
0.000695193
0.000709209
0.000723143
0.000736991
0.000750754
0.000764428
0.000778009
0.000791493
0.000804874
0.000818144
0.000831296
0.000844323
0.000857215
0.000869962
0.000882554
0.000894982
0.000907234
0.0009193
0.000931168
0.000942829
0.000954271
0.000965483
0.000976456
0.000987178
0.000997641
0.00100784
0.00101775
0.00102738
0.00103671
0.00104575
0.00105447
0.00106287
0.00107096
0.00107871
0.00108614
0.00109322
0.00109997
0.00110636
0.00111242
0.00111812
0.00112347
0.00112848
0.00113312
0.00113742
0.00114137
0.00114496
0.00114818
0.00115105
0.00115356
0.00115573
0.00115756
0.00115904
0.00116018
0.00116099
0.00116146
0.00116161
0.00116144
0.00116095
0.00116015
0.00115903
0.00115762
0.0011559
0.0011539
0.00115161
0.00114904
0.00114619
0.00114308
0.0011397
0.00113607
0.00113219
0.00112807
0.00112371
0.00111912
0.0011143
0.00110927
0.00110403
0.00109859
0.00109295
0.00108712
0.00108111
0.00107493
0.00106857
0.00106206
0.00105538
0.00104856
0.0010416
0.0010345
0.00102728
0.00101993
0.00101247
0.0010049
0.000997226
0.000989457
0.000981599
0.000973657
0.000965638
0.000957547
0.000949392
0.000941177
0.000932909
0.000924592
0.000916233
0.000907837
0.000899409
0.000890954
0.000882478
0.000873984
0.000865478
0.000856964
0.000848448
0.000839932
0.000831422
0.000822921
0.000814433
0.000805961
0.000797511
0.000789084
0.000780685
0.000772316
0.000763981
0.000755682
0.000747421
0.000739202
0.000731028
0.000722899
0.000714819
0.00070679
0.000698815
0.000690894
0.000683033
0.000675234
0.000667505
0.000659844
0.00065225
0.00064472
0.000637247
0.000629819
0.000622416
0.000614987
0.000607595
0.00059799
7.87304e-07
2.95698e-05
7.53465e-05
0.000117415
0.000153007
0.000182959
0.000208195
0.000229869
0.000248989
0.000266383
0.000282579
0.000298
0.000312961
0.000327703
0.000342376
0.000357075
0.000371848
0.000386716
0.000401676
0.000416716
0.000431807
0.000446945
0.000462153
0.000477403
0.000492574
0.000507637
0.000522586
0.000537442
0.000552202
0.000566865
0.000581433
0.000595909
0.0006103
0.000624611
0.000638847
0.000653017
0.000667126
0.00068118
0.000695182
0.000709137
0.000723047
0.000736912
0.000750732
0.000764503
0.000778224
0.000791887
0.000805488
0.000819018
0.00083247
0.000845834
0.0008591
0.000872256
0.000885293
0.000898197
0.000910958
0.000923563
0.000935999
0.000948255
0.000960318
0.000972176
0.000983818
0.000995232
0.00100641
0.00101733
0.001028
0.00103839
0.00104851
0.00105833
0.00106786
0.00107709
0.001086
0.00109459
0.00110286
0.00111079
0.00111839
0.00112565
0.00113256
0.00113912
0.00114532
0.00115118
0.00115669
0.00116183
0.00116662
0.00117108
0.00117514
0.00117883
0.00118216
0.00118513
0.00118775
0.00119001
0.00119192
0.00119349
0.0011947
0.00119558
0.00119612
0.00119632
0.0011962
0.00119575
0.00119499
0.0011939
0.00119251
0.00119082
0.00118882
0.00118654
0.00118397
0.00118112
0.00117799
0.0011746
0.00117095
0.00116704
0.00116288
0.00115848
0.00115385
0.00114899
0.00114391
0.00113862
0.00113312
0.00112742
0.00112152
0.00111544
0.00110919
0.00110276
0.00109617
0.00108941
0.00108251
0.00107547
0.00106828
0.00106097
0.00105354
0.00104599
0.00103832
0.00103056
0.0010227
0.00101474
0.00100671
0.000998592
0.000990405
0.000982153
0.000973841
0.000965475
0.000957061
0.000948604
0.000940109
0.000931583