/*--------------------------------*- C++ -*----------------------------------*\
  =========                 |
  \\      /  F ield         | OpenFOAM: The Open Source CFD Toolbox
   \\    /   O peration     | Website:  https://openfoam.org
    \\  /    A nd           | Version:  7
     \\/     M anipulation  |
\*---------------------------------------------------------------------------*/
FoamFile
{
    version     2.0;
    format      ascii;
    class       volScalarField;
    location    "200";
    object      p;
}
// * * * * * * * * * * * * * * * * * * * * * * * * * * * * * * * * * * * * * //

dimensions      [0 2 -2 0 0 0 0];

internalField   nonuniform List<scalar> 
12225
(
-0.369702
-0.310314
-0.249247
-0.200956
-0.16374
-0.135851
-0.114636
-0.0982954
-0.0856617
-0.0758741
-0.0683152
-0.0625567
-0.058313
-0.0554406
-0.0539568
-0.0543107
-0.0576617
-0.0686423
-0.449464
-0.32104
-0.256069
-0.207034
-0.169156
-0.140727
-0.119006
-0.102226
-0.08922
-0.0791167
-0.0712929
-0.0653156
-0.0608963
-0.0578915
-0.0563132
-0.0565616
-0.0593084
-0.0672094
-0.505114
-0.336116
-0.268155
-0.21739
-0.178271
-0.148918
-0.126349
-0.108834
-0.0952
-0.0845616
-0.0762849
-0.0699267
-0.0651889
-0.0619147
-0.0600769
-0.0599158
-0.0614995
-0.0650708
-0.521367
-0.349166
-0.280019
-0.227486
-0.187269
-0.157113
-0.133802
-0.115629
-0.101417
-0.0902726
-0.0815553
-0.0748115
-0.0697275
-0.0661156
-0.0638737
-0.0630282
-0.0631944
-0.0637828
-0.513856
-0.35832
-0.28911
-0.235583
-0.194746
-0.164094
-0.140291
-0.121652
-0.107009
-0.0954703
-0.0863925
-0.0793141
-0.0739031
-0.0699319
-0.0672174
-0.0656102
-0.0645031
-0.0633859
-0.492774
-0.36287
-0.295052
-0.241736
-0.200784
-0.169932
-0.145865
-0.126929
-0.11198
-0.100139
-0.0907672
-0.0833961
-0.0776754
-0.0733392
-0.0701376
-0.0678116
-0.0656854
-0.0635741
-0.462902
-0.362148
-0.297638
-0.24589
-0.205457
-0.174689
-0.150581
-0.131503
-0.116358
-0.104296
-0.0946868
-0.087058
-0.0810451
-0.0763508
-0.0726811
-0.0697233
-0.0668219
-0.0641409
-0.427628
-0.355872
-0.296683
-0.247716
-0.208658
-0.178301
-0.154389
-0.135337
-0.120113
-0.107912
-0.0981221
-0.0902734
-0.0839924
-0.0789623
-0.0748671
-0.0713805
-0.0679182
-0.0649489
-0.389676
-0.344226
-0.292219
-0.246953
-0.210159
-0.18069
-0.157226
-0.138384
-0.12321
-0.11096
-0.10105
-0.0930243
-0.0865086
-0.0811785
-0.0767159
-0.0728077
-0.0689624
-0.0658843
-0.351035
-0.327798
-0.284439
-0.243597
-0.209716
-0.181763
-0.159033
-0.140601
-0.125618
-0.113416
-0.103456
-0.0953032
-0.0885948
-0.0830117
-0.0782487
-0.0740209
-0.0699313
-0.066851
-0.312929
-0.30758
-0.273665
-0.237843
-0.207313
-0.181436
-0.159775
-0.141949
-0.127305
-0.11526
-0.105327
-0.0971056
-0.0902554
-0.0844741
-0.0794802
-0.0750246
-0.0707877
-0.0677772
-0.279064
-0.286632
-0.261548
-0.230689
-0.203508
-0.179881
-0.159515
-0.142411
-0.128206
-0.116398
-0.106558
-0.0983301
-0.0913997
-0.0854893
-0.0803456
-0.075753
-0.0714359
-0.0685413
-0.248042
-0.264231
-0.247855
-0.22203
-0.198293
-0.177121
-0.158313
-0.14213
-0.128493
-0.117013
-0.107336
-0.0991564
-0.0921961
-0.0862073
-0.0809675
-0.0762901
-0.0719862
-0.0690953
-0.215747
-0.238254
-0.230933
-0.210776
-0.190933
-0.17264
-0.155817
-0.140925
-0.128087
-0.117091
-0.107685
-0.0996272
-0.0926917
-0.0866709
-0.0813782
-0.0766601
-0.0724122
-0.0694761
-0.183246
-0.210169
-0.2114
-0.197207
-0.181407
-0.166275
-0.151811
-0.138533
-0.126726
-0.116386
-0.107377
-0.0995375
-0.0927027
-0.0867146
-0.081428
-0.0767241
-0.0725524
-0.0695588
-0.152514
-0.182309
-0.190896
-0.18245
-0.170478
-0.158478
-0.146483
-0.134923
-0.124271
-0.114704
-0.106197
-0.098664
-0.0920059
-0.086117
-0.080894
-0.0762507
-0.0721631
-0.0690863
-0.126739
-0.15819
-0.172281
-0.168727
-0.160027
-0.150644
-0.140749
-0.130677
-0.121038
-0.112163
-0.10412
-0.0968855
-0.090411
-0.0846348
-0.0794866
-0.0749031
-0.0708603
-0.0676024
-0.111656
-0.143153
-0.160013
-0.15941
-0.152684
-0.144812
-0.136164
-0.126986
-0.117931
-0.109436
-0.101642
-0.0945639
-0.0881853
-0.0824707
-0.0773697
-0.0728295
-0.068809
-0.0653381
-0.117313
-0.146986
-0.162558
-0.160994
-0.153342
-0.144671
-0.135394
-0.125699
-0.116194
-0.107307
-0.0991702
-0.0917918
-0.0851454
-0.0791862
-0.0738547
-0.0690838
-0.0647914
-0.0607926
-0.141003
-0.169973
-0.180841
-0.174244
-0.162902
-0.151404
-0.139881
-0.128519
-0.117823
-0.108076
-0.0993119
-0.0914775
-0.0845049
-0.0783176
-0.0728351
-0.0679768
-0.0636416
-0.0595554
-0.180063
-0.204614
-0.206854
-0.192784
-0.176188
-0.160589
-0.145766
-0.131943
-0.119479
-0.10845
-0.0987495
-0.0902358
-0.082774
-0.0762341
-0.0704968
-0.0654528
-0.0609781
-0.056746
-0.229437
-0.245335
-0.235416
-0.212226
-0.189368
-0.169022
-0.150613
-0.134254
-0.12008
-0.107888
-0.0973932
-0.0883501
-0.0805448
-0.0737901
-0.0679276
-0.0628237
-0.0583438
-0.0541684
-0.286028
-0.286911
-0.26138
-0.22851
-0.199273
-0.174247
-0.152691
-0.134375
-0.118958
-0.105967
-0.0949688
-0.0856161
-0.0776278
-0.0707748
-0.0648705
-0.059763
-0.0553126
-0.0512175
-0.346954
-0.323567
-0.280435
-0.239029
-0.204343
-0.175536
-0.151822
-0.132307
-0.116161
-0.102735
-0.0914985
-0.0820326
-0.0740105
-0.0671749
-0.06132
-0.0562807
-0.051917
-0.0479551
-0.408006
-0.349975
-0.29074
-0.243093
-0.2043
-0.173181
-0.148356
-0.128254
-0.111809
-0.0982605
-0.087015
-0.0776105
-0.0696921
-0.0629826
-0.057264
-0.0523631
-0.0481419
-0.0443577
-0.463503
-0.363117
-0.292142
-0.240906
-0.199846
-0.16782
-0.142662
-0.122474
-0.106093
-0.0926977
-0.0816501
-0.0724645
-0.0647702
-0.0582808
-0.0527732
-0.0480711
-0.0440394
-0.0404675
-0.504706
-0.362629
-0.285346
-0.233272
-0.191907
-0.159963
-0.135059
-0.115206
-0.0991976
-0.0861833
-0.075508
-0.0666758
-0.0593118
-0.0531282
-0.0479019
-0.0434564
-0.0396597
-0.0363351
-0.514092
-0.34991
-0.271863
-0.221036
-0.180793
-0.14968
-0.125541
-0.106422
-0.0910919
-0.0786941
-0.0685762
-0.0602455
-0.0533314
-0.0475512
-0.0426865
-0.0385645
-0.035057
-0.0320214
-0.465833
-0.328772
-0.255525
-0.2065
-0.168031
-0.138179
-0.115126
-0.0969995
-0.0825461
-0.0709169
-0.0614743
-0.0537373
-0.047346
-0.0420274
-0.0375711
-0.0338117
-0.0306241
-0.0278839
-0.372247
-0.310922
-0.244777
-0.196765
-0.159404
-0.130374
-0.108044
-0.090582
-0.0767126
-0.0655928
-0.0565963
-0.0492506
-0.0432035
-0.0381888
-0.0340021
-0.030481
-0.0275041
-0.0249318
-0.0772838
-0.0772812
-0.0773926
-0.0776208
-0.0779178
-0.0782478
-0.0785998
-0.078973
-0.0793679
-0.0797887
-0.0802421
-0.0807344
-0.0812709
-0.0818567
-0.0824982
-0.0832021
-0.0839752
-0.0848235
-0.0857512
-0.0867607
-0.0878514
-0.08902
-0.0902599
-0.0915608
-0.0929094
-0.094289
-0.0956808
-0.0970644
-0.0984176
-0.0997181
-0.100943
-0.10207
-0.103078
-0.103945
-0.104653
-0.105182
-0.105516
-0.10564
-0.105539
-0.1052
-0.104612
-0.103765
-0.102651
-0.101261
-0.0995896
-0.0976317
-0.0953837
-0.0928432
-0.0900093
-0.0868827
-0.0834664
-0.0797669
-0.0757951
-0.0715574
-0.0670401
-0.0622312
-0.0571432
-0.0517928
-0.0461934
-0.0403567
-0.0342949
-0.0280195
-0.0215431
-0.014878
-0.00803766
-0.00103515
0.00611544
0.0134005
0.0208056
0.0283169
0.0359198
0.0436005
0.0513449
0.0591392
0.0669698
0.0748236
0.0826874
0.0905488
0.0983958
0.106217
0.114
0.121736
0.129414
0.137024
0.144557
0.152004
0.159359
0.166613
0.173759
0.180792
0.187705
0.194493
0.201151
0.207675
0.214062
0.220307
0.226408
0.232363
0.23817
0.243826
0.249331
0.254683
0.259882
0.264927
0.269819
0.274557
0.279141
0.283574
0.28786
0.292001
0.295995
0.299839
0.303535
0.307087
0.310496
0.313765
0.316896
0.319891
0.322754
0.325485
0.32809
0.330569
0.332926
0.335164
0.337286
0.339294
0.341191
0.34298
0.344664
0.346246
0.347729
0.349116
0.350409
0.351613
0.352729
0.35376
0.35471
0.355581
0.356376
0.357098
0.357749
0.358332
0.35885
0.359305
0.3597
0.360038
0.360319
0.360548
0.360725
0.360854
0.360936
0.360973
0.360967
0.36092
0.360834
0.360711
0.360552
0.360359
0.360133
0.359877
0.359592
0.35928
0.358942
0.358581
0.358199
0.357799
0.357384
0.356959
0.356528
0.356101
0.355687
0.355299
0.354951
0.354669
0.354495
0.354487
0.354772
0.355432
0.35715
0.359051
-0.0769687
-0.0770278
-0.0771629
-0.0773715
-0.0776132
-0.0778544
-0.0780893
-0.0783308
-0.0785974
-0.0789024
-0.0792502
-0.079642
-0.0800849
-0.0805872
-0.0811566
-0.0818009
-0.0825275
-0.0833427
-0.0842512
-0.0852553
-0.0863546
-0.0875447
-0.0888173
-0.09016
-0.0915575
-0.092992
-0.0944431
-0.0958891
-0.0973074
-0.0986749
-0.0999687
-0.101167
-0.102247
-0.10319
-0.103975
-0.104586
-0.105006
-0.105218
-0.105211
-0.10497
-0.104486
-0.103747
-0.102745
-0.101473
-0.0999246
-0.0980941
-0.0959779
-0.0935734
-0.0908789
-0.0878937
-0.0846179
-0.0810518
-0.0771936
-0.0730398
-0.0686011
-0.0638961
-0.0589324
-0.053714
-0.0482479
-0.0425433
-0.0366106
-0.0304607
-0.0241055
-0.017557
-0.010828
-0.00393166
0.00311848
0.0103088
0.0176252
0.0250539
0.0325805
0.0401912
0.0478718
0.0556088
0.0633884
0.0711974
0.0790227
0.0868518
0.0946725
0.102473
0.110242
0.117969
0.125643
0.133254
0.140794
0.148253
0.155624
0.162898
0.17007
0.177131
0.184077
0.190901
0.197599
0.204166
0.210598
0.216892
0.223045
0.229053
0.234916
0.24063
0.246194
0.251608
0.25687
0.261979
0.266937
0.271742
0.276396
0.280899
0.285245
0.28943
0.293462
0.297348
0.301087
0.304683
0.308136
0.311451
0.314627
0.317669
0.320579
0.323358
0.32601
0.328537
0.330942
0.333228
0.335398
0.337454
0.339399
0.341235
0.342967
0.344596
0.346126
0.347559
0.348899
0.350148
0.351309
0.352385
0.353378
0.354293
0.35513
0.355894
0.356586
0.35721
0.357767
0.358261
0.358694
0.359069
0.359387
0.35965
0.359862
0.360025
0.360139
0.360208
0.360234
0.360217
0.36016
0.360065
0.359934
0.359768
0.359568
0.359337
0.359077
0.358788
0.358473
0.358135
0.357775
0.357396
0.357002
0.356597
0.356186
0.355778
0.355381
0.35501
0.35468
0.354419
0.354265
0.354273
0.354562
0.355192
0.356758
0.358279
-0.0759601
-0.0761745
-0.0765035
-0.0768295
-0.0770658
-0.0772196
-0.0773329
-0.077445
-0.0775853
-0.0777738
-0.0780243
-0.0783463
-0.0787475
-0.0792352
-0.0798153
-0.0804928
-0.0812709
-0.0821511
-0.083133
-0.0842135
-0.0853862
-0.0866416
-0.0879679
-0.0893513
-0.0907759
-0.0922241
-0.0936772
-0.0951154
-0.0965187
-0.0978667
-0.0991392
-0.100317
-0.10138
-0.10231
-0.10309
-0.103704
-0.104135
-0.104369
-0.104394
-0.104196
-0.103764
-0.103088
-0.10216
-0.100971
-0.099514
-0.0977841
-0.0957765
-0.0934876
-0.0909153
-0.0880582
-0.084916
-0.0814885
-0.0777754
-0.0737771
-0.0694995
-0.0649521
-0.0601425
-0.0550771
-0.0497639
-0.0442116
-0.0384301
-0.0324297
-0.0262217
-0.0198177
-0.0132299
-0.0064711
0.000445611
0.00750691
0.0146991
0.0220086
0.0294214
0.0369238
0.044502
0.0521423
0.0598313
0.0675559
0.0753029
0.0830599
0.0908146
0.0985553
0.106271
0.11395
0.121583
0.129158
0.136668
0.144103
0.151455
0.158716
0.165879
0.172937
0.179884
0.186714
0.193422
0.200003
0.206454
0.21277
0.218948
0.224985
0.230879
0.236628
0.24223
0.247684
0.252988
0.258143
0.263146
0.267998
0.272699
0.277249
0.28165
0.285901
0.290005
0.293965
0.297779
0.301449
0.304978
0.308367
0.311618
0.314735
0.317718
0.320571
0.323296
0.325895
0.328373
0.33073
0.33297
0.335095
0.337109
0.339014
0.340813
0.342508
0.344103
0.3456
0.347003
0.348314
0.349536
0.350671
0.351724
0.352695
0.353589
0.354407
0.355153
0.355829
0.356438
0.356982
0.357463
0.357885
0.358249
0.358557
0.358813
0.359017
0.359172
0.359281
0.359344
0.359365
0.359344
0.359284
0.359186
0.359052
0.358884
0.358683
0.358452
0.358191
0.357904
0.357591
0.357257
0.356902
0.356532
0.35615
0.355763
0.355376
0.355
0.354648
0.354337
0.354091
0.35395
0.353959
0.354221
0.354753
0.356028
0.356893
-0.0744059
-0.0747913
-0.0753994
-0.0759621
-0.0763316
-0.0765575
-0.0767132
-0.0768511
-0.0770091
-0.0772154
-0.0774903
-0.0778478
-0.0782974
-0.0788459
-0.0794974
-0.0802543
-0.0811164
-0.0820816
-0.0831453
-0.0843004
-0.085538
-0.0868471
-0.0882153
-0.0896286
-0.0910716
-0.0925279
-0.0939803
-0.0954109
-0.0968014
-0.0981336
-0.0993891
-0.10055
-0.101598
-0.102518
-0.103291
-0.103903
-0.104339
-0.104584
-0.104626
-0.104452
-0.104051
-0.103413
-0.102529
-0.10139
-0.0999895
-0.0983209
-0.0963792
-0.0941605
-0.0916618
-0.0888811
-0.0858175
-0.0824707
-0.0788416
-0.0749324
-0.0707484
-0.0662962
-0.0615824
-0.0566135
-0.0513973
-0.0459422
-0.0402576
-0.0343534
-0.0282405
-0.0219302
-0.0154346
-0.00876595
-0.00193718
0.00503862
0.0121481
0.0193776
0.0267137
0.0341426
0.0416507
0.0492246
0.0568509
0.0645164
0.0722084
0.0799142
0.0876217
0.0953193
0.102996
0.11064
0.118242
0.12579
0.133277
0.140694
0.14803
0.15528
0.162435
0.169489
0.176436
0.183269
0.189983
0.196574
0.203037
0.209368
0.215564
0.221622
0.22754
0.233314
0.238944
0.244428
0.249763
0.254951
0.25999
0.26488
0.26962
0.274213
0.278658
0.282958
0.287114
0.291124
0.294991
0.298714
0.302296
0.305739
0.309045
0.312216
0.315255
0.318163
0.320942
0.323597
0.326129
0.328541
0.330836
0.333015
0.335083
0.337041
0.338893
0.340641
0.342287
0.343836
0.34529
0.346651
0.347922
0.349106
0.350207
0.351226
0.352166
0.35303
0.353821
0.35454
0.355192
0.355778
0.356301
0.356763
0.357166
0.357513
0.357806
0.358047
0.358238
0.358381
0.358478
0.358531
0.358542
0.358513
0.358444
0.358339
0.358199
0.358025
0.35782
0.357584
0.357321
0.357032
0.35672
0.356387
0.356038
0.355676
0.355307
0.354937
0.354576
0.354236
0.353933
0.35369
0.353539
0.353519
0.353707
0.354079
0.354991
0.35522
-0.072757
-0.0733041
-0.0742273
-0.0750893
-0.0756733
-0.076061
-0.0763517
-0.0766082
-0.0768742
-0.0771831
-0.0775589
-0.0780175
-0.0785694
-0.0792207
-0.0799742
-0.0808299
-0.0817859
-0.0828378
-0.0839793
-0.0852021
-0.0864962
-0.0878501
-0.089251
-0.0906852
-0.0921379
-0.093594
-0.0950374
-0.0964519
-0.0978207
-0.0991273
-0.100355
-0.101487
-0.102507
-0.1034
-0.10415
-0.104741
-0.105161
-0.105394
-0.10543
-0.105255
-0.104858
-0.104229
-0.103359
-0.102239
-0.100862
-0.0992211
-0.0973112
-0.0951278
-0.0926677
-0.0899286
-0.0869094
-0.08361
-0.0800313
-0.0761758
-0.0720477
-0.0676524
-0.0629958
-0.0580847
-0.0529266
-0.0475299
-0.0419037
-0.0360578
-0.030003
-0.0237504
-0.0173119
-0.0106995
-0.00392614
0.00299538
0.0100518
0.0172297
0.0245156
0.0318961
0.0393575
0.0468866
0.0544702
0.062095
0.0697486
0.0774182
0.085092
0.0927584
0.100406
0.108024
0.115602
0.123129
0.130598
0.137998
0.145322
0.152561
0.159709
0.166757
0.173701
0.180534
0.18725
0.193846
0.200315
0.206656
0.212864
0.218936
0.22487
0.230662
0.236311
0.241816
0.247175
0.252388
0.257453
0.262371
0.267142
0.271766
0.276243
0.280576
0.284764
0.288809
0.29271
0.296469
0.300087
0.303568
0.306912
0.310122
0.313199
0.316147
0.318967
0.321662
0.324234
0.326687
0.329022
0.331243
0.333351
0.33535
0.337243
0.339031
0.340719
0.342308
0.343801
0.345202
0.346512
0.347736
0.348874
0.349931
0.350909
0.35181
0.352637
0.353393
0.35408
0.354701
0.355258
0.355753
0.356189
0.356569
0.356893
0.357164
0.357385
0.357558
0.357683
0.357764
0.357802
0.357799
0.357756
0.357676
0.35756
0.357409
0.357226
0.357012
0.35677
0.356501
0.356208
0.355893
0.35556
0.355213
0.354858
0.3545
0.354148
0.353813
0.353508
0.353254
0.353077
0.353003
0.353089
0.353276
0.353829
0.353538
-0.0714494
-0.0721302
-0.0733311
-0.0744724
-0.0752819
-0.0758591
-0.076318
-0.0767283
-0.0771377
-0.0775823
-0.0780882
-0.0786725
-0.0793458
-0.0801135
-0.0809772
-0.0819358
-0.0829857
-0.0841213
-0.0853354
-0.0866189
-0.0879616
-0.0893521
-0.090778
-0.0922264
-0.0936833
-0.0951347
-0.0965656
-0.0979611
-0.0993058
-0.100584
-0.101781
-0.102881
-0.103869
-0.10473
-0.105449
-0.106012
-0.106407
-0.106618
-0.106634
-0.106443
-0.106034
-0.105397
-0.104521
-0.103399
-0.102023
-0.100385
-0.0984815
-0.0963066
-0.0938572
-0.0911311
-0.088127
-0.0848448
-0.0812854
-0.0774513
-0.0733462
-0.0689749
-0.0643433
-0.059458
-0.0543264
-0.0489569
-0.0433587
-0.0375415
-0.0315159
-0.0252931
-0.0188848
-0.0123031
-0.00556059
0.00132981
0.00835502
0.0155018
0.0227566
0.0301062
0.0375372
0.0450363
0.0525904
0.0601866
0.0678121
0.0754547
0.0831026
0.0907443
0.0983684
0.105964
0.11352
0.121028
0.128479
0.135863
0.143172
0.150398
0.157535
0.164574
0.17151
0.178336
0.185049
0.191642
0.198112
0.204454
0.210665
0.216742
0.222681
0.228482
0.234141
0.239657
0.24503
0.250257
0.255338
0.260274
0.265063
0.269707
0.274206
0.27856
0.282771
0.286838
0.290764
0.294548
0.298194
0.301702
0.305075
0.308313
0.311421
0.314399
0.31725
0.319976
0.322581
0.325066
0.327434
0.329687
0.331828
0.33386
0.335786
0.337608
0.339328
0.340951
0.342477
0.343911
0.345255
0.346511
0.347682
0.348771
0.34978
0.350713
0.351571
0.352358
0.353076
0.353726
0.354313
0.354837
0.355301
0.355708
0.35606
0.356358
0.356606
0.356804
0.356954
0.35706
0.357121
0.357141
0.357121
0.357063
0.356968
0.356838
0.356675
0.35648
0.356255
0.356004
0.355726
0.355427
0.355108
0.354773
0.354427
0.354077
0.353728
0.353391
0.353078
0.352803
0.352587
0.352444
0.352412
0.352411
0.352638
0.351927
-0.0707805
-0.0715575
-0.072951
-0.0743043
-0.0753093
-0.0760673
-0.0766955
-0.0772646
-0.0778233
-0.0784085
-0.0790468
-0.0797557
-0.080546
-0.0814226
-0.0823869
-0.083437
-0.0845684
-0.0857748
-0.0870486
-0.0883809
-0.0897616
-0.0911797
-0.0926232
-0.0940799
-0.095537
-0.096981
-0.098398
-0.0997741
-0.101095
-0.102346
-0.103513
-0.104582
-0.105537
-0.106365
-0.107052
-0.107584
-0.107948
-0.108131
-0.10812
-0.107903
-0.107471
-0.106811
-0.105915
-0.104773
-0.103379
-0.101726
-0.0998074
-0.0976191
-0.0951576
-0.0924206
-0.0894069
-0.0861164
-0.0825504
-0.0787111
-0.0746023
-0.0702285
-0.0655957
-0.0607102
-0.0555798
-0.0502127
-0.0446182
-0.0388061
-0.032787
-0.0265721
-0.020173
-0.013602
-0.00687149
5.63908e-06
0.00701636
0.0141475
0.0213857
0.0287177
0.0361302
0.0436102
0.0511445
0.0587205
0.0663255
0.0739474
0.0815746
0.0891956
0.0967989
0.104374
0.11191
0.119399
0.126832
0.134198
0.141491
0.148701
0.155822
0.162848
0.169771
0.176587
0.18329
0.189874
0.196337
0.202673
0.208879
0.214953
0.220891
0.226692
0.232352
0.237871
0.243247
0.24848
0.253568
0.258512
0.263311
0.267966
0.272476
0.276844
0.281068
0.285151
0.289093
0.292895
0.296559
0.300087
0.30348
0.30674
0.309869
0.31287
0.315745
0.318496
0.321125
0.323636
0.326029
0.328309
0.330477
0.332536
0.334488
0.336337
0.338085
0.339735
0.34129
0.342751
0.344122
0.345406
0.346605
0.347721
0.348758
0.349718
0.350603
0.351417
0.35216
0.352837
0.353449
0.353999
0.354488
0.35492
0.355296
0.355618
0.355888
0.356109
0.356282
0.356409
0.356492
0.356533
0.356533
0.356495
0.356419
0.356307
0.356161
0.355983
0.355775
0.355538
0.355275
0.354989
0.354681
0.354355
0.354016
0.353669
0.35332
0.352975
0.352646
0.352343
0.352079
0.351859
0.351703
0.351518
0.351457
0.350407
-0.070884
-0.0717033
-0.0731901
-0.0746692
-0.0758145
-0.0767177
-0.0774905
-0.0781994
-0.078891
-0.0796014
-0.0803566
-0.0811741
-0.0820646
-0.0830328
-0.0840794
-0.0852023
-0.0863973
-0.0876581
-0.088977
-0.0903451
-0.0917525
-0.093189
-0.0946433
-0.0961038
-0.097558
-0.0989931
-0.100396
-0.101754
-0.103052
-0.104279
-0.105418
-0.106458
-0.107383
-0.108179
-0.108834
-0.109334
-0.109664
-0.109814
-0.109769
-0.10952
-0.109054
-0.108361
-0.107432
-0.106258
-0.104832
-0.103147
-0.101196
-0.098977
-0.0964849
-0.0937179
-0.090675
-0.0873563
-0.0837631
-0.079898
-0.0757646
-0.0713676
-0.066713
-0.0618074
-0.0566585
-0.0512749
-0.0456657
-0.0398409
-0.0338114
-0.0275881
-0.021183
-0.0146081
-0.00787599
-0.000999417
0.0060086
0.0131349
0.0203664
0.0276898
0.0350919
0.0425598
0.0500806
0.0576417
0.0652307
0.0728355
0.0804448
0.0880468
0.0956305
0.103185
0.110702
0.118171
0.125584
0.132931
0.140204
0.147395
0.154498
0.161506
0.168413
0.175212
0.181899
0.18847
0.194919
0.201244
0.207439
0.213503
0.219433
0.225226
0.230881
0.236395
0.241769
0.247
0.252088
0.257032
0.261834
0.266492
0.271007
0.27538
0.279612
0.283703
0.287654
0.291467
0.295143
0.298684
0.302091
0.305366
0.308511
0.311528
0.314421
0.31719
0.319838
0.322368
0.324782
0.327082
0.329271
0.331351
0.333326
0.335197
0.336968
0.338641
0.340218
0.341703
0.343097
0.344405
0.345627
0.346767
0.347827
0.34881
0.349719
0.350555
0.351322
0.352022
0.352657
0.353229
0.35374
0.354194
0.354591
0.354934
0.355226
0.355467
0.35566
0.355807
0.355909
0.355969
0.355987
0.355966
0.355907
0.355812
0.355682
0.35552
0.355326
0.355103
0.354852
0.354576
0.354277
0.353959
0.353624
0.353277
0.352923
0.352567
0.352218
0.35188
0.351562
0.35126
0.35098
0.350621
0.350311
0.348985
-0.0717393
-0.0725504
-0.074038
-0.0755555
-0.076777
-0.0777767
-0.0786544
-0.0794697
-0.0802654
-0.0810751
-0.0819232
-0.0828258
-0.0837928
-0.0848294
-0.0859366
-0.0871124
-0.0883521
-0.0896498
-0.0909984
-0.0923894
-0.0938136
-0.0952608
-0.0967202
-0.0981803
-0.0996292
-0.101055
-0.102444
-0.103785
-0.105064
-0.106268
-0.107383
-0.108395
-0.109291
-0.110057
-0.110679
-0.111145
-0.11144
-0.111553
-0.11147
-0.111181
-0.110675
-0.109941
-0.108969
-0.107752
-0.106282
-0.104551
-0.102556
-0.100291
-0.097753
-0.0949406
-0.0918528
-0.0884899
-0.0848535
-0.0809464
-0.0767725
-0.0723367
-0.0676451
-0.0627045
-0.0575229
-0.052109
-0.046472
-0.0406223
-0.0345706
-0.0283281
-0.0219066
-0.0153184
-0.00857594
-0.00169199
0.00532049
0.0124485
0.0196788
0.0269984
0.0343943
0.0418536
0.0493637
0.056912
0.0644863
0.072075
0.0796664
0.0872491
0.0948124
0.102346
0.109841
0.117289
0.124679
0.132003
0.139253
0.146421
0.153502
0.160488
0.167372
0.174151
0.180818
0.187369
0.193799
0.200106
0.206285
0.212333
0.218249
0.224028
0.229671
0.235175
0.240539
0.245762
0.250844
0.255783
0.260581
0.265236
0.269751
0.274124
0.278356
0.28245
0.286405
0.290223
0.293905
0.297453
0.300868
0.304153
0.307309
0.310338
0.313243
0.316025
0.318688
0.321232
0.323661
0.325978
0.328184
0.330281
0.332274
0.334164
0.335953
0.337645
0.339242
0.340746
0.342161
0.343488
0.34473
0.345891
0.346971
0.347975
0.348904
0.349761
0.350549
0.351268
0.351923
0.352515
0.353047
0.35352
0.353937
0.354299
0.354609
0.354869
0.35508
0.355245
0.355365
0.355442
0.355477
0.355472
0.355429
0.355349
0.355234
0.355085
0.354904
0.354692
0.354452
0.354186
0.353895
0.353581
0.353248
0.352899
0.352538
0.352168
0.351794
0.351418
0.351043
0.350657
0.350257
0.349737
0.349211
0.347664
-0.0732332
-0.0739947
-0.0754068
-0.0768856
-0.0781204
-0.0791646
-0.0801034
-0.0809875
-0.0818538
-0.0827315
-0.083643
-0.0846037
-0.0856226
-0.0867042
-0.0878496
-0.0890573
-0.0903236
-0.0916429
-0.0930082
-0.0944114
-0.0958434
-0.0972942
-0.0987531
-0.100209
-0.10165
-0.103065
-0.104442
-0.105767
-0.107028
-0.108211
-0.109302
-0.110289
-0.111157
-0.111892
-0.112482
-0.112912
-0.113169
-0.113242
-0.113117
-0.112783
-0.112229
-0.111445
-0.110422
-0.109152
-0.107627
-0.105841
-0.103788
-0.101466
-0.0988702
-0.0960002
-0.0928552
-0.0894359
-0.0857442
-0.0817834
-0.0775575
-0.0730718
-0.0683327
-0.0633472
-0.0581235
-0.0526705
-0.0469978
-0.0411157
-0.035035
-0.0287671
-0.022324
-0.0157177
-0.00896082
-0.00206605
0.00495373
0.0120855
0.0193164
0.0266334
0.0340236
0.0414743
0.0489731
0.0565077
0.0640662
0.0716368
0.0792081
0.086769
0.0943094
0.101819
0.109289
0.116711
0.124074
0.131371
0.138594
0.145735
0.152788
0.159746
0.166604
0.173356
0.179997
0.186523
0.192929
0.199212
0.205369
0.211396
0.217291
0.223052
0.228677
0.234165
0.239514
0.244724
0.249793
0.254722
0.25951
0.264158
0.268666
0.273034
0.277263
0.281354
0.285308
0.289126
0.29281
0.29636
0.29978
0.303069
0.306232
0.309268
0.312181
0.314973
0.317646
0.320202
0.322643
0.324972
0.327191
0.329303
0.33131
0.333215
0.33502
0.336728
0.338341
0.339863
0.341294
0.342639
0.343899
0.345078
0.346176
0.347198
0.348146
0.349021
0.349827
0.350565
0.351238
0.351849
0.352398
0.352889
0.353324
0.353704
0.354031
0.354308
0.354537
0.354718
0.354854
0.354946
0.354997
0.355007
0.354979
0.354913
0.354811
0.354675
0.354506
0.354305
0.354074
0.353816
0.35353
0.35322
0.352888
0.352535
0.352164
0.351777
0.351376
0.35096
0.350526
0.350058
0.349543
0.348878
0.348164
0.34644
-0.075205
-0.075887
-0.0771669
-0.0785449
-0.0797383
-0.080779
-0.0817347
-0.0826475
-0.0835484
-0.0844627
-0.085409
-0.0864005
-0.087446
-0.0885502
-0.0897145
-0.0909374
-0.0922154
-0.0935431
-0.0949138
-0.0963194
-0.0977508
-0.0991982
-0.100651
-0.102099
-0.103531
-0.104935
-0.106298
-0.107608
-0.108851
-0.110014
-0.111083
-0.112044
-0.112883
-0.113586
-0.11414
-0.114532
-0.114748
-0.114775
-0.114601
-0.114215
-0.113607
-0.112766
-0.111683
-0.11035
-0.108761
-0.106909
-0.10479
-0.102401
-0.099738
-0.0968011
-0.09359
-0.0901057
-0.0863507
-0.0823284
-0.0780435
-0.0735015
-0.068709
-0.0636735
-0.0584032
-0.0529073
-0.0471956
-0.0412785
-0.0351669
-0.0288724
-0.0224068
-0.0157822
-0.00901125
-0.00210645
0.00491934
0.0120533
0.0192826
0.0265945
0.0339762
0.0414154
0.0488996
0.0564168
0.0639554
0.0715038
0.0790507
0.0865858
0.0940988
0.10158
0.10902
0.11641
0.123742
0.131006
0.138195
0.145303
0.152323
0.159248
0.166073
0.172792
0.179402
0.185896
0.192273
0.198526
0.204655
0.210655
0.216524
0.222261
0.227863
0.23333
0.238659
0.24385
0.248902
0.253815
0.258589
0.263225
0.267721
0.272079
0.2763
0.280385
0.284333
0.288148
0.291829
0.295379
0.298798
0.302089
0.305254
0.308295
0.311213
0.314011
0.316691
0.319254
0.321704
0.324043
0.326273
0.328396
0.330415
0.332333
0.334151
0.335873
0.337501
0.339037
0.340484
0.341844
0.34312
0.344314
0.345429
0.346468
0.347432
0.348324
0.349147
0.349902
0.350592
0.351219
0.351785
0.352293
0.352744
0.353141
0.353485
0.353778
0.354022
0.354219
0.35437
0.354477
0.354543
0.354567
0.354552
0.354499
0.35441
0.354286
0.354127
0.353937
0.353715
0.353463
0.353182
0.352875
0.352541
0.352183
0.351801
0.351395
0.350966
0.350508
0.350016
0.349468
0.348847
0.34805
0.347176
0.345309
-0.077483
-0.0780629
-0.0791691
-0.0803985
-0.081504
-0.0824979
-0.0834316
-0.0843377
-0.0852401
-0.0861596
-0.0871126
-0.0881112
-0.0891628
-0.0902715
-0.0914384
-0.0926621
-0.0939389
-0.0952636
-0.0966291
-0.0980278
-0.0994506
-0.100888
-0.102331
-0.103769
-0.105189
-0.10658
-0.107929
-0.109222
-0.110446
-0.111586
-0.11263
-0.113562
-0.114368
-0.115035
-0.115549
-0.115896
-0.116063
-0.116038
-0.115808
-0.115363
-0.114691
-0.113784
-0.112633
-0.11123
-0.109568
-0.107643
-0.10545
-0.102986
-0.10025
-0.0972403
-0.0939578
-0.090404
-0.0865818
-0.0824951
-0.0781488
-0.0735488
-0.0687021
-0.0636163
-0.0582999
-0.0527624
-0.0470136
-0.0410638
-0.0349243
-0.0286064
-0.022122
-0.0154833
-0.00870258
-0.00179249
0.00523436
0.0123654
0.0195879
0.0268892
0.0342569
0.0416787
0.0491424
0.0566362
0.0641485
0.0716679
0.0791839
0.0866865
0.0941652
0.10161
0.109014
0.116366
0.123659
0.130883
0.138032
0.1451
0.15208
0.158965
0.165751
0.172432
0.179003
0.185461
0.191801
0.19802
0.204114
0.210082
0.21592
0.221627
0.227201
0.232641
0.237945
0.243113
0.248143
0.253036
0.257792
0.26241
0.266891
0.271236
0.275444
0.279518
0.283458
0.287265
0.29094
0.294485
0.297902
0.301191
0.304356
0.307398
0.310318
0.313119
0.315804
0.318373
0.320829
0.323176
0.325414
0.327546
0.329575
0.331503
0.333333
0.335067
0.336707
0.338256
0.339716
0.341091
0.342381
0.34359
0.34472
0.345774
0.346753
0.347661
0.348499
0.34927
0.349976
0.350619
0.351201
0.351724
0.352191
0.352603
0.352963
0.353271
0.35353
0.353742
0.353908
0.35403
0.354109
0.354147
0.354145
0.354105
0.354027
0.353914
0.353766
0.353585
0.35337
0.353125
0.352848
0.352542
0.352206
0.351842
0.351447
0.351023
0.350564
0.350065
0.349516
0.348893
0.348174
0.347258
0.346245
0.344263
-0.0798905
-0.0803578
-0.0812676
-0.0823153
-0.0832958
-0.0842063
-0.0850817
-0.085947
-0.086821
-0.0877203
-0.088658
-0.0896435
-0.0906833
-0.0917806
-0.0929357
-0.0941468
-0.0954102
-0.0967205
-0.0980712
-0.0994549
-0.100863
-0.102287
-0.103716
-0.105139
-0.106544
-0.107918
-0.109248
-0.110518
-0.111717
-0.112829
-0.11384
-0.114736
-0.115502
-0.116124
-0.116589
-0.116882
-0.116991
-0.116904
-0.116609
-0.116094
-0.115351
-0.114369
-0.113142
-0.111661
-0.109921
-0.107917
-0.105646
-0.103105
-0.100293
-0.0972095
-0.0938552
-0.0902325
-0.0863445
-0.0821956
-0.0777909
-0.0731367
-0.0682401
-0.0631091
-0.0577522
-0.0521788
-0.046399
-0.0404233
-0.0342628
-0.0279288
-0.0214332
-0.0147882
-0.00800589
-0.00109876
0.00592073
0.0130401
0.0202468
0.0275286
0.0348731
0.0422683
0.0497023
0.0571634
0.0646401
0.0721218
0.0795987
0.0870601
0.0944958
0.101897
0.109255
0.116562
0.123806
0.130983
0.138085
0.145106
0.152038
0.158877
0.165616
0.172252
0.178779
0.185193
0.191491
0.197669
0.203724
0.209654
0.215455
0.221128
0.226669
0.232076
0.237351
0.24249
0.247494
0.252363
0.257096
0.261693
0.266155
0.270482
0.274675
0.278735
0.282663
0.286459
0.290125
0.293663
0.297074
0.300359
0.303521
0.306561
0.309481
0.312283
0.31497
0.317542
0.320003
0.322355
0.3246
0.326739
0.328777
0.330714
0.332554
0.334298
0.335949
0.33751
0.338982
0.340369
0.341673
0.342895
0.344039
0.345107
0.346101
0.347023
0.347876
0.348662
0.349383
0.350041
0.350638
0.351177
0.351659
0.352086
0.35246
0.352783
0.353057
0.353283
0.353463
0.353599
0.353692
0.353743
0.353754
0.353726
0.35366
0.353557
0.353419
0.353246
0.35304
0.352799
0.352526
0.352221
0.351882
0.351511
0.351104
0.350659
0.350171
0.349632
0.349028
0.348335
0.347526
0.346506
0.345372
0.343299
-0.0822743
-0.082627
-0.083332
-0.0841787
-0.0850074
-0.0858052
-0.0865938
-0.0873907
-0.08821
-0.0890645
-0.0899645
-0.0909173
-0.0919272
-0.0929965
-0.0941247
-0.0953098
-0.0965478
-0.0978338
-0.0991615
-0.100523
-0.101911
-0.103314
-0.104722
-0.106123
-0.107503
-0.10885
-0.110149
-0.111387
-0.112549
-0.11362
-0.114587
-0.115434
-0.116147
-0.116712
-0.117115
-0.117343
-0.117384
-0.117225
-0.116855
-0.116264
-0.115442
-0.114381
-0.113073
-0.111511
-0.109691
-0.107607
-0.105259
-0.102642
-0.0997562
-0.0966019
-0.0931804
-0.0894942
-0.0855469
-0.0813429
-0.0768878
-0.0721881
-0.0672509
-0.0620844
-0.0566973
-0.051099
-0.0452997
-0.0393097
-0.0331401
-0.0268022
-0.0203078
-0.0136688
-0.00689732
-5.53766e-06
0.0069942
0.0140897
0.0212686
0.0285188
0.0358283
0.0431853
0.0505779
0.0579947
0.0654252
0.0728593
0.0802866
0.0876962
0.0950789
0.102427
0.109731
0.116981
0.12417
0.131291
0.138337
0.145302
0.15218
0.158964
0.16565
0.172233
0.178709
0.185074
0.191323
0.197454
0.203464
0.20935
0.21511
0.220742
0.226244
0.231616
0.236856
0.241963
0.246937
0.251777
0.256483
0.261056
0.265495
0.269801
0.273976
0.278018
0.281931
0.285714
0.289368
0.292896
0.296298
0.299577
0.302734
0.30577
0.308688
0.31149
0.314177