/*--------------------------------*- C++ -*----------------------------------*\
  =========                 |
  \\      /  F ield         | OpenFOAM: The Open Source CFD Toolbox
   \\    /   O peration     | Website:  https://openfoam.org
    \\  /    A nd           | Version:  7
     \\/     M anipulation  |
\*---------------------------------------------------------------------------*/
FoamFile
{
    version     2.0;
    format      ascii;
    class       surfaceScalarField;
    location    "200";
    object      phi;
}
// * * * * * * * * * * * * * * * * * * * * * * * * * * * * * * * * * * * * * //

dimensions      [0 3 -1 0 0 0 0];

internalField   nonuniform List<scalar> 
24170
(
3.54197e-08
-1.95108e-08
5.52486e-08
-1.9829e-08
7.16436e-08
-1.63951e-08
8.5639e-08
-1.39954e-08
9.78896e-08
-1.22507e-08
1.08295e-07
-1.04058e-08
1.17108e-07
-8.81242e-09
1.24603e-07
-7.4951e-09
1.31018e-07
-6.41498e-09
1.36555e-07
-5.53712e-09
1.41384e-07
-4.82964e-09
1.45656e-07
-4.27139e-09
1.49512e-07
-3.85689e-09
1.53119e-07
-3.60683e-09
1.56717e-07
-3.59793e-09
1.60838e-07
-4.12087e-09
1.66797e-07
-5.95897e-09
-1.41861e-08
1.80983e-07
7.5959e-08
-4.37794e-08
9.99407e-08
-4.38107e-08
1.20432e-07
-3.68866e-08
1.38347e-07
-3.19104e-08
1.53856e-07
-2.77596e-08
1.67298e-07
-2.38485e-08
1.78965e-07
-2.04786e-08
1.89128e-07
-1.76585e-08
1.98033e-07
-1.53204e-08
2.05891e-07
-1.33954e-08
2.12884e-07
-1.18226e-08
2.19174e-07
-1.05609e-08
2.24915e-07
-9.59774e-09
2.30275e-07
-8.96778e-09
2.35475e-07
-8.79789e-09
2.40833e-07
-9.47879e-09
2.46823e-07
-1.19489e-08
-1.86895e-08
2.51326e-07
1.13649e-07
-6.33375e-08
1.37395e-07
-6.75568e-08
1.59156e-07
-5.86475e-08
1.78176e-07
-5.09301e-08
1.94671e-07
-4.42545e-08
2.091e-07
-3.82773e-08
2.21758e-07
-3.31371e-08
2.32902e-07
-2.88024e-08
2.42761e-07
-2.51796e-08
2.51536e-07
-2.21706e-08
2.59403e-07
-1.96897e-08
2.6652e-07
-1.76778e-08
2.73035e-07
-1.61127e-08
2.79097e-07
-1.50299e-08
2.84863e-07
-1.4564e-08
2.90456e-07
-1.50709e-08
2.95724e-07
-1.72172e-08
-2.18565e-08
2.98891e-07
1.57509e-07
-7.69127e-08
1.7854e-07
-8.85883e-08
1.99728e-07
-7.98348e-08
2.18741e-07
-6.99435e-08
2.35458e-07
-6.09719e-08
2.50229e-07
-5.30481e-08
2.63308e-07
-4.62163e-08
2.74921e-07
-4.04146e-08
2.85271e-07
-3.55302e-08
2.94543e-07
-3.14426e-08
3.029e-07
-2.80467e-08
3.10489e-07
-2.52671e-08
3.17445e-07
-2.30688e-08
3.23891e-07
-2.14757e-08
3.29924e-07
-2.05971e-08
3.35542e-07
-2.06888e-08
3.40433e-07
-2.21084e-08
-2.49282e-08
3.43505e-07
2.09615e-07
-8.44334e-08
2.26754e-07
-1.05727e-07
2.46032e-07
-9.91128e-08
2.64171e-07
-8.80827e-08
2.80506e-07
-7.73071e-08
2.95141e-07
-6.76829e-08
3.08237e-07
-5.9312e-08
3.19965e-07
-5.21434e-08
3.30497e-07
-4.60616e-08
3.39989e-07
-4.09344e-08
3.48585e-07
-3.66434e-08
3.56417e-07
-3.30994e-08
3.63602e-07
-3.02529e-08
3.70233e-07
-2.81066e-08
3.76361e-07
-2.67258e-08
3.81926e-07
-2.62534e-08
3.86625e-07
-2.68075e-08
-2.81225e-08
3.89819e-07
2.71486e-07
-8.64318e-08
2.83987e-07
-1.18228e-07
3.00298e-07
-1.15424e-07
3.16741e-07
-1.04526e-07
3.32075e-07
-9.26411e-08
3.4609e-07
-8.16975e-08
3.58802e-07
-7.20241e-08
3.70306e-07
-6.36473e-08
3.80721e-07
-5.64771e-08
3.90171e-07
-5.03845e-08
3.98774e-07
-4.52464e-08
4.06639e-07
-4.0964e-08
4.13859e-07
-3.74728e-08
4.20502e-07
-3.47495e-08
4.26586e-07
-3.28102e-08
4.32031e-07
-3.16982e-08
4.36596e-07
-3.13732e-08
-3.14619e-08
4.39936e-07
3.44475e-07
-8.38505e-08
3.51894e-07
-1.25648e-07
3.64373e-07
-1.27903e-07
3.78304e-07
-1.18457e-07
3.91981e-07
-1.06318e-07
4.04845e-07
-9.45619e-08
4.16734e-07
-8.39131e-08
4.2764e-07
-7.45529e-08
4.37616e-07
-6.64533e-08
4.46741e-07
-5.95092e-08
4.55098e-07
-5.36037e-08
4.62769e-07
-4.86348e-08
4.69821e-07
-4.45252e-08
4.76298e-07
-4.12259e-08
4.82195e-07
-3.87075e-08
4.87435e-07
-3.6938e-08
4.91849e-07
-3.57868e-08
-3.48877e-08
4.95274e-07
4.29735e-07
-7.78479e-08
4.31981e-07
-1.27894e-07
4.39975e-07
-1.35896e-07
4.5061e-07
-1.29092e-07
4.61947e-07
-1.17655e-07
4.73081e-07
-1.05696e-07
4.83657e-07
-9.44886e-08
4.93544e-07
-8.444e-08
5.02716e-07
-7.5625e-08
5.11193e-07
-6.79867e-08
5.19019e-07
-6.14296e-08
5.26241e-07
-5.58566e-08
5.32898e-07
-5.11825e-08
5.3901e-07
-4.73375e-08
5.44559e-07
-4.42566e-08
5.49478e-07
-4.18578e-08
5.53663e-07
-3.99714e-08
-3.82843e-08
5.5706e-07
5.2822e-07
-6.96307e-08
5.25576e-07
-1.25249e-07
5.28708e-07
-1.39029e-07
5.35373e-07
-1.35757e-07
5.43682e-07
-1.25964e-07
5.52474e-07
-1.14489e-07
5.612e-07
-1.03214e-07
5.696e-07
-9.28399e-08
5.77555e-07
-8.35797e-08
5.8502e-07
-7.54515e-08
5.91988e-07
-6.8398e-08
5.98469e-07
-6.23374e-08
6.04471e-07
-5.71849e-08
6.09991e-07
-5.28576e-08
6.15002e-07
-4.92677e-08
6.19451e-07
-4.63064e-08
6.23278e-07
-4.37982e-08
-4.14933e-08
6.26487e-07
6.40667e-07
-6.03258e-08
6.33754e-07
-1.18337e-07
6.31991e-07
-1.37265e-07
6.34212e-07
-1.37978e-07
6.38855e-07
-1.30607e-07
6.44692e-07
-1.20325e-07
6.51005e-07
-1.09528e-07
6.57411e-07
-9.92459e-08
6.63695e-07
-8.98633e-08
6.69739e-07
-8.14956e-08
6.75482e-07
-7.41415e-08
6.80892e-07
-6.77472e-08
6.85945e-07
-6.22373e-08
6.90614e-07
-5.75266e-08
6.94863e-07
-5.35174e-08
6.9865e-07
-5.00928e-08
7.01943e-07
-4.70914e-08
-4.43194e-08
7.04769e-07
7.6755e-07
-5.08704e-08
7.5727e-07
-1.08056e-07
7.50913e-07
-1.30909e-07
7.48493e-07
-1.35558e-07
7.48999e-07
-1.31112e-07
7.51322e-07
-1.22649e-07
7.5467e-07
-1.12876e-07
7.58558e-07
-1.03134e-07
7.62686e-07
-9.39909e-08
7.66866e-07
-8.56754e-08
7.70981e-07
-7.82565e-08
7.74953e-07
-7.17199e-08
7.78727e-07
-6.60105e-08
7.82251e-07
-6.1051e-08
7.8548e-07
-5.67466e-08
7.88373e-07
-5.29859e-08
7.90914e-07
-4.96321e-08
-4.65355e-08
7.9313e-07
7.57502e-07
-4.29914e-08
7.47127e-07
-9.76812e-08
7.38683e-07
-1.22464e-07
7.33148e-07
-1.30024e-07
7.3021e-07
-1.28174e-07
7.29143e-07
-1.21582e-07
7.29313e-07
-1.13046e-07
7.30275e-07
-1.04096e-07
7.31728e-07
-9.54436e-08
7.3347e-07
-8.74175e-08
7.35363e-07
-8.015e-08
7.3731e-07
-7.36669e-08
7.39237e-07
-6.7937e-08
7.41083e-07
-6.28974e-08
7.428e-07
-5.84638e-08
7.44352e-07
-5.45375e-08
7.45716e-07
-5.09966e-08
-4.77557e-08
7.46936e-07
1.00243e-06
-3.48716e-08
9.89297e-07
-8.45458e-08
9.76837e-07
-1.10005e-07
9.66879e-07
-1.20065e-07
9.59692e-07
-1.20988e-07
9.54827e-07
-1.16716e-07
9.51702e-07
-1.0992e-07
9.49821e-07
-1.02216e-07
9.48822e-07
-9.4444e-08
9.48439e-07
-8.70343e-08
9.48478e-07
-8.01894e-08
9.48796e-07
-7.39845e-08
9.4928e-07
-6.84215e-08
9.49844e-07
-6.34608e-08
9.50417e-07
-5.9037e-08
9.5095e-07
-5.50705e-08
9.5142e-07
-5.14665e-08
-4.81769e-08
9.51841e-07
1.3276e-06
-2.69778e-08
1.31219e-06
-6.91331e-08
1.29555e-06
-9.33723e-08
1.28037e-06
-1.04884e-07
1.26765e-06
-1.08266e-07
1.25744e-06
-1.06501e-07
1.24938e-06
-1.01863e-07
1.24305e-06
-9.58893e-08
1.23808e-06
-8.94685e-08
1.23415e-06
-8.31032e-08
1.23102e-06
-7.70585e-08
1.22849e-06
-7.14607e-08
1.22642e-06
-6.63515e-08
1.22468e-06
-6.17223e-08
1.22318e-06
-5.75349e-08
1.22185e-06
-5.37352e-08
1.22064e-06
-5.02605e-08
-4.70847e-08
1.21955e-06
1.75355e-06
-1.95972e-08
1.73674e-06
-5.23258e-08
1.71645e-06
-7.30767e-08
1.6959e-06
-8.43399e-08
1.67682e-06
-8.91801e-08
1.65991e-06
-8.95938e-08
1.64527e-06
-8.72224e-08
1.6327e-06
-8.3319e-08
1.62192e-06
-7.86902e-08
1.61265e-06
-7.38332e-08
1.60463e-06
-6.90398e-08
1.59764e-06
-6.44711e-08
1.5915e-06
-6.02044e-08
1.58604e-06
-5.62637e-08
1.58114e-06
-5.26412e-08
1.57672e-06
-4.93118e-08
1.5727e-06
-4.6244e-08
-4.34305e-08
1.56905e-06
2.29919e-06
-1.27212e-08
2.28174e-06
-3.48777e-08
2.25871e-06
-5.00401e-08
2.23344e-06
-5.90765e-08
2.20808e-06
-6.3815e-08
2.18392e-06
-6.54422e-08
2.16161e-06
-6.49089e-08
2.14132e-06
-6.30317e-08
2.12303e-06
-6.03975e-08
2.10659e-06
-5.73918e-08
2.09181e-06
-5.42621e-08
2.0785e-06
-5.11617e-08
2.06648e-06
-4.81788e-08
2.05557e-06
-4.53573e-08
2.04564e-06
-4.27127e-08
2.03658e-06
-4.02451e-08
2.02828e-06
-3.79486e-08
-3.58325e-08
2.02068e-06
2.97233e-06
-5.96336e-09
2.95431e-06
-1.68565e-08
2.92907e-06
-2.48056e-08
2.89988e-06
-2.9885e-08
2.86899e-06
-3.29266e-08
2.83802e-06
-3.44645e-08
2.80798e-06
-3.48774e-08
2.77948e-06
-3.45273e-08
2.75278e-06
-3.37014e-08
2.72799e-06
-3.25948e-08
2.70506e-06
-3.13392e-08
2.68393e-06
-3.00232e-08
2.66445e-06
-2.87039e-08
2.64651e-06
-2.74148e-08
2.62997e-06
-2.61744e-08
2.61472e-06
-2.49921e-08
2.60064e-06
-2.38746e-08
-2.28417e-08
2.58765e-06
3.74866e-06
1.51269e-09
3.72912e-06
2.68462e-09
3.70103e-06
3.28855e-09
3.66765e-06
3.49116e-09
3.63139e-06
3.33992e-09
3.59398e-06
2.94261e-09
3.5567e-06
2.40271e-09
3.52039e-06
1.78271e-09
3.48557e-06
1.12079e-09
3.45253e-06
4.45807e-10
3.42141e-06
-2.20484e-10
3.39225e-06
-8.62806e-10
3.36501e-06
-1.47088e-09
3.33964e-06
-2.03812e-09
3.31602e-06
-2.56084e-09
3.29407e-06
-3.03876e-09
3.27367e-06
-3.47584e-09
-3.88699e-09
3.25472e-06
4.53043e-06
8.58483e-09
4.50778e-06
2.53415e-08
4.47409e-06
3.69715e-08
4.43377e-06
4.38147e-08
4.38989e-06
4.72162e-08
4.34468e-06
4.81595e-08
4.2997e-06
4.73813e-08
4.25599e-06
4.54913e-08
4.21417e-06
4.29454e-08
4.17456e-06
4.0056e-08
4.1373e-06
3.70314e-08
4.10243e-06
3.40093e-08
4.06988e-06
3.10776e-08
4.03956e-06
2.82894e-08
4.01132e-06
2.56735e-08
3.98504e-06
2.32422e-08
3.96057e-06
2.09952e-08
1.89133e-08
3.93777e-06
3.11439e-06
1.81185e-08
3.09191e-06
4.78142e-08
3.06209e-06
6.67931e-08
3.02893e-06
7.69772e-08
2.99503e-06
8.11163e-08
2.96203e-06
8.11549e-08
2.93086e-06
7.85595e-08
2.9019e-06
7.44472e-08
2.87527e-06
6.95744e-08
2.85091e-06
6.44215e-08
2.82866e-06
5.92796e-08
2.80835e-06
5.43203e-08
2.78979e-06
4.96384e-08
2.7728e-06
4.5279e-08
2.75721e-06
4.12568e-08
2.74289e-06
3.75678e-08
2.72969e-06
3.41958e-08
3.11138e-08
2.71749e-06
2.47121e-06
2.86762e-08
2.44726e-06
7.1761e-08
2.41836e-06
9.56908e-08
2.38911e-06
1.06227e-07
2.36176e-06
1.08473e-07
2.33724e-06
1.05671e-07
2.31574e-06
1.00061e-07
2.29703e-06
9.31569e-08
2.28076e-06
8.58434e-08
2.26657e-06
7.86111e-08
2.25413e-06
7.17182e-08
2.24316e-06
6.52909e-08
2.23342e-06
5.93772e-08
2.22472e-06
5.39807e-08
2.2169e-06
4.90808e-08
2.20982e-06
4.46452e-08
2.20338e-06
4.06354e-08
3.70084e-08
2.19749e-06
1.9037e-06
4.16989e-08
1.87972e-06
9.57356e-08
1.85542e-06
1.19988e-07
1.83441e-06
1.27241e-07
1.8175e-06
1.25382e-07
1.80441e-06
1.18759e-07
1.79445e-06
1.10026e-07
1.78688e-06
1.00729e-07
1.7811e-06
9.16231e-08
1.77666e-06
8.30533e-08
1.77321e-06
7.51643e-08
1.77051e-06
6.79942e-08
1.76836e-06
6.15246e-08
1.76663e-06
5.57106e-08
1.76521e-06
5.04961e-08
1.76404e-06
4.58225e-08
1.76304e-06
4.16334e-08
3.78739e-08
1.76217e-06
1.42686e-06
5.67277e-08
1.40667e-06
1.15926e-07
1.39144e-06
1.3522e-07
1.38198e-06
1.36698e-07
1.37728e-06
1.30088e-07
1.37595e-06
1.2008e-07
1.37681e-06
1.09173e-07
1.37898e-06
9.85528e-08
1.38193e-06
8.8678e-08
1.38528e-06
7.97e-08
1.38881e-06
7.16373e-08
1.39236e-06
6.44437e-08
1.39584e-06
5.80459e-08
1.39919e-06
5.2362e-08
1.40237e-06
4.73117e-08
1.40537e-06
4.282e-08
1.40819e-06
3.88205e-08
3.52542e-08
1.4108e-06
1.0409e-06
7.1566e-08
1.0291e-06
1.27731e-07
1.02586e-06
1.38458e-07
1.02876e-06
1.33801e-07
1.03542e-06
1.23426e-07
1.04399e-06
1.11512e-07
1.05329e-06
9.98717e-08
1.06269e-06
8.9149e-08
1.07186e-06
7.95155e-08
1.08059e-06
7.0964e-08
1.08881e-06
6.34176e-08
1.09648e-06
5.67743e-08
1.1036e-06
5.09284e-08
1.11018e-06
4.578e-08
1.11625e-06
4.12382e-08
1.12185e-06
3.72229e-08
1.127e-06
3.36665e-08
3.05123e-08
1.13175e-06
7.38431e-07
8.2762e-08
7.38351e-07
1.27811e-07
7.4752e-07
1.2929e-07
7.61218e-07
1.20103e-07
7.76627e-07
1.08017e-07
7.9214e-07
9.5999e-08
8.07024e-07
8.49876e-08
8.20984e-07
7.51891e-08
8.33916e-07
6.65832e-08
8.45811e-07
5.90691e-08
8.56707e-07
5.25212e-08
8.66668e-07
4.68138e-08
8.75764e-07
4.18321e-08
8.8407e-07
3.74743e-08
8.91656e-07
3.36521e-08
8.9859e-07
3.02893e-08
9.04933e-07
2.73233e-08
2.47064e-08
9.10739e-07
5.08364e-07
8.65171e-08
5.20974e-07
1.15201e-07
5.40616e-07
1.09647e-07
5.62078e-07
9.86417e-08
5.82987e-07
8.71078e-08
6.02481e-07
7.6505e-08
6.20345e-07
6.7123e-08
6.36589e-07
5.89459e-08
6.51301e-07
5.18704e-08
6.64606e-07
4.57645e-08
6.76633e-07
4.04941e-08
6.8751e-07
3.59365e-08
6.97357e-07
3.1985e-08
7.06283e-07
2.85483e-08
7.14386e-07
2.5549e-08
7.21754e-07
2.29214e-08
7.28466e-07
2.06118e-08
1.85862e-08
7.34586e-07
3.38161e-07
7.97773e-08
3.61897e-07
9.14656e-08
3.88597e-07
8.29467e-08
4.14375e-07
7.28637e-08
4.37842e-07
6.36405e-08
4.58902e-07
5.54457e-08
4.77745e-07
4.82793e-08
4.94584e-07
4.21069e-08
5.09633e-07
3.68222e-08
5.23094e-07
3.23029e-08
5.35155e-07
2.84332e-08
5.45981e-07
2.51101e-08
5.5572e-07
2.22464e-08
5.64499e-07
1.97691e-08
5.72431e-07
1.76176e-08
5.79612e-07
1.57403e-08
5.86129e-07
1.4094e-08
1.26624e-08
5.92053e-07
2.15302e-07
6.10479e-08
2.46527e-07
6.02403e-08
2.76297e-07
5.31766e-08
3.03303e-07
4.5858e-08
3.27013e-07
3.99296e-08
3.47856e-07
3.4603e-08
3.66237e-07
2.98988e-08
3.82468e-07
2.58759e-08
3.96827e-07
2.24626e-08
4.09562e-07
1.95677e-08
4.20887e-07
1.71082e-08
4.30986e-07
1.50111e-08
4.40017e-07
1.32155e-08
4.48115e-07
1.16713e-08
4.55395e-07
1.03374e-08
4.61957e-07
9.17915e-09
4.67888e-07
8.16196e-09
7.28758e-09
4.73263e-07
1.27954e-07
3.10772e-08
1.60943e-07
2.7251e-08
1.89651e-07
2.44693e-08
2.15179e-07
2.033e-08
2.37305e-07
1.78034e-08
2.56549e-07
1.53587e-08
2.73326e-07
1.31215e-08
2.87979e-07
1.12238e-08
3.0081e-07
9.63091e-09
3.12085e-07
8.29243e-09
3.22027e-07
7.16621e-09
3.30823e-07
6.21497e-09
3.38631e-07
5.40762e-09
3.45583e-07
4.71928e-09
3.51791e-07
4.12935e-09
3.57349e-07
3.6217e-09
3.62339e-07
3.1719e-09
2.7794e-09
3.66847e-07
5.8662e-08
8.5913e-08
1.10382e-07
1.30712e-07
1.48516e-07
1.63874e-07
1.76996e-07
1.8822e-07
1.97851e-07
2.06143e-07
2.13309e-07
2.19524e-07
2.24932e-07
2.29651e-07
2.33781e-07
2.37402e-07
2.40574e-07
2.43353e-07
3.61527e-09
-3.615e-09
9.46601e-09
-5.85022e-09
1.4593e-08
-5.12661e-09
1.7928e-08
-3.33457e-09
1.92011e-08
-1.27271e-09
1.85399e-08
6.61587e-10
1.6269e-08
2.2711e-09
1.27529e-08
3.51652e-09
8.27589e-09
4.47716e-09
3.01091e-09
5.2653e-09
-2.98826e-09
5.99925e-09
-9.7661e-09
6.77807e-09
-1.73788e-08
7.61263e-09
-2.58637e-08
8.4851e-09
-3.52497e-08
9.38587e-09
-4.55429e-08
1.02933e-08
-5.67222e-08
1.11792e-08
-6.87375e-08
1.20152e-08
-8.15146e-08
1.27769e-08
-9.49592e-08
1.34443e-08
-1.08963e-07
1.40039e-08
-1.23411e-07
1.44471e-08
-1.38181e-07
1.47702e-08
-1.53156e-07
1.49738e-08
-1.68219e-07
1.50622e-08
-1.83262e-07
1.50423e-08
-1.98185e-07
1.49233e-08
-2.12902e-07
1.47158e-08
-2.27333e-07
1.44305e-08
-2.41412e-07
1.40782e-08
-2.55082e-07
1.36694e-08
-2.68296e-07
1.32136e-08
-2.81016e-07
1.27194e-08
-2.9321e-07
1.21943e-08
-3.04856e-07
1.16451e-08
-3.15933e-07
1.10771e-08
-3.26428e-07
1.04951e-08
-3.36331e-07
9.90274e-09
-3.45635e-07
9.30318e-09
-3.54333e-07
8.69881e-09
-3.62425e-07
8.09155e-09
-3.69908e-07
7.48282e-09
-3.76782e-07
6.87371e-09
-3.83047e-07
6.26496e-09
-3.88704e-07
5.65698e-09
-3.93754e-07
5.04993e-09
-3.98197e-07
4.44358e-09
-4.02035e-07
3.83741e-09
-4.05265e-07
3.2305e-09
-4.07887e-07
2.62168e-09
-4.09897e-07
2.00937e-09
-4.11288e-07
1.39182e-09
-4.12057e-07
7.68435e-10
-4.12205e-07
1.48321e-10
-4.11767e-07
-4.38271e-10
-4.10791e-07
-9.7548e-10
-4.09313e-07
-1.47807e-09
-4.07354e-07
-1.95842e-09
-4.04932e-07
-2.42251e-09
-4.02059e-07
-2.87266e-09
-3.98749e-07
-3.30998e-09
-3.95015e-07
-3.73453e-09
-3.90869e-07
-4.14637e-09
-3.86324e-07
-4.54506e-09
-3.81395e-07
-4.93045e-09
-3.76093e-07
-5.30201e-09
-3.70434e-07
-5.65967e-09
-3.64431e-07
-6.00292e-09
-3.58101e-07
-6.33177e-09
-3.51455e-07
-6.64583e-09
-3.44511e-07
-6.94517e-09
-3.37282e-07
-7.2295e-09
-3.29784e-07
-7.49899e-09
-3.22031e-07
-7.7534e-09
-3.14039e-07
-7.99304e-09
-3.05822e-07
-8.21775e-09
-2.97395e-07
-8.42791e-09
-2.88772e-07
-8.62351e-09
-2.79968e-07
-8.80501e-09
-2.70997e-07
-8.97247e-09
-2.61872e-07
-9.12634e-09
-2.52606e-07
-9.26704e-09
-2.43214e-07
-9.39373e-09
-2.33709e-07
-9.50685e-09
-2.24103e-07
-9.60767e-09
-2.14409e-07
-9.69628e-09
-2.04638e-07
-9.77287e-09
-1.94801e-07
-9.83776e-09
-1.84911e-07
-9.89127e-09
-1.74978e-07
-9.93374e-09
-1.65013e-07
-9.96564e-09
-1.55027e-07
-9.9874e-09
-1.45028e-07
-9.9994e-09
-1.35027e-07
-1.0002e-08
-1.25032e-07
-9.99559e-09
-1.15052e-07
-9.98051e-09
-1.05096e-07
-9.95716e-09
-9.51705e-08
-9.92593e-09
-8.52845e-08
-9.88718e-09
-7.54446e-08
-9.84127e-09
-6.56579e-08
-9.7885e-09
-5.5931e-08
-9.72931e-09
-4.62702e-08
-9.66389e-09
-3.66812e-08
-9.59277e-09
-2.71693e-08
-9.51604e-09
-1.77402e-08
-9.43367e-09
-8.4011e-09
-9.34325e-09
8.3053e-10
-9.23577e-09
9.96324e-09
-9.13617e-09
1.90038e-08
-9.04384e-09
2.79358e-08
-8.93449e-09
3.6754e-08
-8.82049e-09
4.54556e-08
-8.70317e-09
5.40374e-08
-8.58319e-09
6.24969e-08
-8.46024e-09
7.08312e-08
-8.33495e-09
7.90381e-08
-8.20691e-09
8.71151e-08
-8.07663e-09
9.50599e-08
-7.94375e-09
1.02869e-07
-7.80865e-09
1.10541e-07
-7.67114e-09
1.18072e-07
-7.53169e-09
1.25461e-07
-7.3901e-09
1.32707e-07
-7.24684e-09
1.39809e-07
-7.10151e-09
1.46763e-07
-6.95464e-09
1.5357e-07
-6.8059e-09
1.60227e-07
-6.65587e-09
1.66733e-07
-6.50426e-09
1.73086e-07
-6.35161e-09
1.79286e-07
-6.19765e-09
1.85332e-07
-6.04284e-09
1.91222e-07
-5.88699e-09
1.96955e-07
-5.73053e-09
2.02532e-07
-5.57332e-09
2.07951e-07
-5.41574e-09
2.13212e-07
-5.25769e-09
2.18315e-07
-5.0995e-09
2.2326e-07
-4.94111e-09
2.28047e-07
-4.78279e-09
2.32676e-07
-4.62457e-09
2.37147e-07
-4.46666e-09
2.41459e-07
-4.30918e-09
2.45615e-07
-4.15226e-09
2.49614e-07
-3.99602e-09
2.53458e-07
-3.84055e-09
2.57146e-07
-3.68599e-09
2.60681e-07
-3.53241e-09
2.64063e-07
-3.37992e-09
2.67294e-07
-3.22863e-09
2.70375e-07
-3.07862e-09
2.73306e-07
-2.92994e-09
2.76091e-07
-2.78273e-09
2.78729e-07
-2.63707e-09
2.81224e-07
-2.49304e-09
2.83576e-07
-2.35063e-09
2.85787e-07
-2.2098e-09
2.87859e-07
-2.07046e-09
2.89792e-07
-1.93258e-09
2.91589e-07
-1.79599e-09
2.93251e-07
-1.66047e-09
2.94777e-07
-1.52567e-09
2.96169e-07
-1.39114e-09
2.97426e-07
-1.25619e-09
2.98547e-07
-1.11985e-09
2.99528e-07
-9.80659e-10
3.00365e-07
-8.3666e-10
3.01051e-07
-6.85122e-10
3.01573e-07
-5.21648e-10
3.01913e-07
-3.39718e-10
3.0203e-07
-1.16678e-10
3.01859e-07
1.7165e-10
3.01331e-07
5.28731e-10
3.00357e-07
9.74445e-10
2.98787e-07
1.57037e-09
2.96357e-07
2.42996e-09
2.92568e-07
3.78997e-09
2.86491e-07
6.07686e-09
2.75996e-07
1.04952e-08
1.89004e-08
2.57096e-07
3.58283e-09
-7.19752e-09
6.2255e-09
-8.49234e-09
6.37467e-09
-5.27544e-09
4.45872e-09
-1.41827e-09
8.82781e-10
2.30346e-09
-4.12271e-09
5.66736e-09
-1.04471e-08
8.59568e-09
-1.80232e-08
1.10928e-08
-2.67739e-08
1.3228e-08
-3.66131e-08
1.51047e-08
-4.74374e-08
1.68236e-08
-5.91179e-08
1.84586e-08
-7.15499e-08
2.00446e-08
-8.46472e-08
2.15825e-08
-9.83131e-08
2.30518e-08
-1.12443e-07
2.44228e-08
-1.26928e-07
2.56644e-08
-1.4166e-07
2.67475e-08
-1.56532e-07
2.76486e-08
-1.71439e-07
2.83511e-08
-1.86281e-07
2.88455e-08
-2.00964e-07
2.91303e-08
-2.15407e-07
2.92121e-08
-2.29536e-07
2.91031e-08
-2.43293e-07
2.8819e-08
-2.56629e-07
2.83779e-08
-2.69505e-07
2.77988e-08
-2.81891e-07
2.71009e-08
-2.93764e-07
2.63029e-08
-3.05107e-07
2.54218e-08
-3.15912e-07
2.44733e-08
-3.2617e-07
2.34711e-08
-3.35877e-07
2.24271e-08
-3.45035e-07
2.13511e-08
-3.53641e-07
2.02517e-08
-3.617e-07
1.91354e-08
-3.69212e-07
1.80077e-08
-3.76183e-07
1.68729e-08
-3.82614e-07
1.57343e-08
-3.8851e-07
1.45944e-08
-3.93873e-07
1.34553e-08
-3.98709e-07
1.23183e-08
-4.0302e-07
1.11846e-08
-4.0681e-07
1.0055e-08
-4.10083e-07
8.93021e-09
-4.12844e-07
7.81065e-09
-4.15097e-07
6.69681e-09
-4.16849e-07
5.58918e-09
-4.18107e-07
4.48844e-09
-4.18881e-07
3.39562e-09
-4.19184e-07
2.3124e-09
-4.19034e-07
1.24182e-09
-4.18455e-07
1.89558e-10
-4.17471e-07
-8.35706e-10
-4.16078e-07
-1.83099e-09
-4.14254e-07
-2.79972e-09
-4.11988e-07
-3.74418e-09
-4.09281e-07
-4.66525e-09
-4.0614e-07
-5.5636e-09
-4.02573e-07
-6.43931e-09
-3.98591e-07
-7.29212e-09
-3.94204e-07
-8.12141e-09
-3.89425e-07
-8.92653e-09
-3.84263e-07
-9.70666e-09
-3.78733e-07
-1.04611e-08
-3.72846e-07
-1.11891e-08
-3.66616e-07
-1.18901e-08
-3.60056e-07
-1.25635e-08
-3.53179e-07
-1.32088e-08
-3.45999e-07
-1.38257e-08
-3.38531e-07
-1.4414e-08
-3.30788e-07
-1.49733e-08
-3.22784e-07
-1.55036e-08
-3.14533e-07
-1.60049e-08
-3.06049e-07
-1.64774e-08
-2.97346e-07
-1.6921e-08
-2.88438e-07
-1.73362e-08
-2.79339e-07
-1.77232e-08
-2.70062e-07
-1.80826e-08
-2.6062e-07
-1.84148e-08
-2.51027e-07
-1.87205e-08
-2.41295e-07
-1.90002e-08
-2.31436e-07
-1.9253e-08
-2.21464e-07
-1.948e-08
-2.1139e-07
-1.96827e-08
-2.01226e-07
-1.98617e-08
-1.90983e-07
-2.00172e-08
-1.80671e-07
-2.015e-08
-1.70302e-07
-2.02607e-08
-1.59886e-07
-2.03501e-08
-1.49434e-07
-2.04188e-08
-1.38954e-07
-2.04678e-08
-1.28456e-07
-2.04977e-08
-1.17949e-07
-2.05094e-08
-1.07441e-07
-2.05035e-08
-9.69413e-08
-2.04807e-08
-8.64571e-08
-2.04419e-08
-7.5996e-08
-2.03876e-08
-6.55652e-08
-2.03187e-08
-5.51715e-08
-2.02358e-08
-4.48217e-08
-2.01395e-08
-3.4522e-08
-2.00305e-08
-2.42785e-08
-1.99094e-08
-1.40967e-08
-1.97768e-08
-3.98265e-09
-1.96328e-08
6.05874e-09
-1.94775e-08
1.60246e-08
-1.93117e-08
2.59206e-08
-1.91339e-08
3.57306e-08
-1.89483e-08
4.54398e-08
-1.87546e-08
5.50529e-08
-1.85492e-08
6.45666e-08
-1.83353e-08
7.39772e-08
-1.81148e-08
8.32818e-08
-1.78884e-08
9.24773e-08
-1.76563e-08
1.01561e-07
-1.74189e-08
1.1053e-07
-1.71763e-08
1.19383e-07
-1.69286e-08
1.28116e-07
-1.66759e-08
1.36726e-07
-1.64186e-08
1.45212e-07
-1.61567e-08
1.5357e-07
-1.58906e-08
1.618e-07
-1.56205e-08
1.69899e-07
-1.53466e-08
1.77866e-07
-1.5069e-08
1.857e-07
-1.47879e-08
1.93398e-07
-1.45034e-08
2.00959e-07
-1.4216e-08
2.08381e-07
-1.39256e-08
2.15664e-07
-1.36328e-08
2.22805e-07
-1.33374e-08
2.29804e-07
-1.30401e-08
2.36659e-07
-1.27407e-08
2.43371e-07
-1.24397e-08
2.49937e-07
-1.21373e-08
2.56357e-07
-1.18337e-08
2.62631e-07
-1.15292e-08
2.68758e-07
-1.12239e-08
2.74738e-07
-1.09182e-08
2.80571e-07
-1.06121e-08
2.86255e-07
-1.03061e-08
2.91792e-07
-1.00003e-08
2.9718e-07
-9.6951e-09
3.02421e-07
-9.39061e-09
3.07514e-07
-9.08712e-09
3.1246e-07
-8.78479e-09
3.1726e-07
-8.48387e-09
3.21914e-07
-8.1845e-09
3.26423e-07
-7.88689e-09
3.30787e-07
-7.5912e-09
3.35008e-07
-7.29767e-09
3.39085e-07
-7.00637e-09
3.43022e-07
-6.71755e-09
3.46817e-07
-6.43129e-09
3.50473e-07
-6.14773e-09
3.5399e-07
-5.86685e-09
3.5737e-07
-5.5886e-09
3.60613e-07
-5.31285e-09
3.63721e-07
-5.03949e-09
3.66694e-07
-4.76815e-09
3.69533e-07
-4.49837e-09
3.72237e-07
-4.22946e-09
3.74807e-07
-3.96046e-09
3.77242e-07
-3.69002e-09
3.79539e-07
-3.41625e-09
3.81695e-07
-3.13633e-09
3.83705e-07
-2.84647e-09
3.85562e-07
-2.54132e-09
3.87254e-07
-2.21302e-09
3.88764e-07
-1.8497e-09
3.9008e-07
-1.43198e-09
3.91183e-07
-9.31747e-10
3.92026e-07
-3.13515e-10
3.92528e-07
4.72992e-10
3.92579e-07
1.51974e-09
3.92022e-07
2.98734e-09
3.90587e-07
5.2251e-09
3.879e-07
8.7638e-09
3.83219e-07
1.51767e-08
2.67991e-08
3.75321e-07
4.63621e-10
-7.66092e-09
-2.25811e-09
-5.77026e-09
-6.97164e-09
-5.6171e-10
-1.28969e-08
4.50719e-09
-1.9759e-08
9.16561e-09
-2.74781e-08
1.33866e-08
-3.60531e-08
1.71707e-08
-4.54959e-08
2.05357e-08
-5.57931e-08
2.35252e-08
-6.68899e-08
2.62016e-08
-7.86936e-08
2.86273e-08
-9.10843e-08
3.08494e-08
-1.03931e-07
3.28917e-08
-1.17105e-07
3.47564e-08
-1.30484e-07
3.64305e-08
-1.43955e-07
3.78941e-08
-1.57418e-07
3.9127e-08
-1.70783e-07
4.01128e-08
-1.83976e-07
4.08413e-08
-1.96934e-07
4.13091e-08
-2.09609e-07
4.15203e-08
-2.21965e-07
4.14859e-08
-2.33974e-07
4.12212e-08
-2.45616e-07
4.07454e-08
-2.56877e-07
4.00798e-08
-2.67746e-07
3.92466e-08
-2.78216e-07
3.82679e-08
-2.8828e-07
3.71648e-08
-2.97934e-07
3.59571e-08
-3.07175e-07
3.46627e-08
-3.16e-07
3.32974e-08
-3.24404e-07
3.18751e-08
-3.32384e-07
3.04076e-08
-3.39938e-07
2.89048e-08
-3.47062e-07
2.73749e-08
-3.53751e-07
2.58247e-08
-3.60003e-07
2.42596e-08
-3.65814e-07
2.26839e-08
-3.71181e-07
2.11013e-08
-3.76101e-07
1.95144e-08
-3.80572e-07
1.79256e-08
-3.8459e-07
1.63368e-08
-3.88155e-07
1.47494e-08
-3.91265e-07
1.31651e-08
-3.9392e-07
1.15851e-08
-3.9612e-07
1.00107e-08
-3.97867e-07
8.44354e-09
-3.99163e-07
6.8851e-09
-4.00012e-07
5.33735e-09
-4.00419e-07
3.80263e-09
-4.0039e-07
2.28382e-09
-3.99933e-07
7.84506e-10
-3.99052e-07
-6.91097e-10
-3.97748e-07
-2.13956e-09
-3.96019e-07
-3.56061e-09
-3.93863e-07
-4.95515e-09
-3.91285e-07
-6.32274e-09
-3.88288e-07
-7.6623e-09
-3.84879e-07
-8.97265e-09
-3.81066e-07
-1.02525e-08
-3.76857e-07
-1.15004e-08
-3.72264e-07
-1.27152e-08
-3.67295e-07
-1.38953e-08
-3.61962e-07
-1.50395e-08
-3.56277e-07
-1.61466e-08
-3.50251e-07
-1.72154e-08
-3.43896e-07
-1.82451e-08
-3.37225e-07
-1.92347e-08
-3.30251e-07
-2.01835e-08
-3.22986e-07
-2.10909e-08
-3.15443e-07
-2.19566e-08
-3.07637e-07
-2.27802e-08
-2.99579e-07
-2.35615e-08
-2.91284e-07
-2.43005e-08
-2.82764e-07
-2.49974e-08
-2.74033e-07
-2.56522e-08
-2.65104e-07
-2.62655e-08
-2.5599e-07
-2.68375e-08
-2.46704e-07
-2.73691e-08
-2.37259e-07
-2.78609e-08
-2.27666e-07
-2.83138e-08
-2.17938e-07
-2.87284e-08
-2.08087e-07
-2.91044e-08
-1.98125e-07
-2.94427e-08
-1.88064e-07
-2.97453e-08
-1.77913e-07
-3.00129e-08
-1.67684e-07
-3.02463e-08
-1.57388e-07
-3.04465e-08
-1.47035e-07
-3.06143e-08
-1.36635e-07
-3.07509e-08
-1.26196e-07
-3.08574e-08
-1.15729e-07
-3.09348e-08
-1.05243e-07
-3.09843e-08
-9.47456e-08
-3.10071e-08
-8.42453e-08
-3.1004e-08
-7.37501e-08
-3.09762e-08
-6.32674e-08
-3.09248e-08
-5.28046e-08
-3.08508e-08
-4.23687e-08
-3.07552e-08
-3.19663e-08
-3.06389e-08
-2.16038e-08
-3.05028e-08
-1.12874e-08
-3.0348e-08
-1.02288e-09
-3.01754e-08
9.18406e-09
-2.99853e-08
1.93284e-08
-2.97789e-08
2.94063e-08
-2.95571e-08
3.94136e-08
-2.93206e-08
4.93478e-08
-2.90693e-08
5.92017e-08
-2.88035e-08
6.89692e-08
-2.85231e-08
7.86479e-08
-2.82288e-08
8.82344e-08
-2.79225e-08
9.7725e-08
-2.76061e-08
1.07116e-07
-2.72801e-08
1.16405e-07
-2.69454e-08
1.25589e-07
-2.66023e-08
1.34663e-07
-2.62512e-08
1.43628e-07
-2.58922e-08
1.52478e-07
-2.55258e-08
1.61212e-07
-2.51522e-08
1.69827e-07
-2.47719e-08
1.78321e-07
-2.43851e-08
1.86692e-07
-2.39922e-08
1.94939e-07
-2.35935e-08
2.03059e-07
-2.31893e-08
2.11051e-07
-2.27798e-08
2.18913e-07
-2.23653e-08
2.26644e-07
-2.19462e-08
2.34242e-07
-2.15228e-08
2.41705e-07
-2.10954e-08
2.49033e-07
-2.06644e-08
2.56224e-07
-2.023e-08
2.63277e-07
-1.97927e-08
2.70192e-07
-1.93527e-08
2.76966e-07
-1.89105e-08
2.83601e-07
-1.84664e-08
2.90094e-07
-1.80207e-08
2.96445e-07
-1.75737e-08
3.02655e-07
-1.71257e-08
3.08722e-07
-1.66772e-08
3.14646e-07
-1.62285e-08
3.20428e-07
-1.57799e-08
3.26066e-07
-1.53319e-08
3.31562e-07
-1.48848e-08
3.36915e-07
-1.44389e-08
3.42126e-07
-1.39945e-08
3.47195e-07
-1.35519e-08
3.52123e-07
-1.31114e-08
3.5691e-07
-1.26733e-08
3.61558e-07
-1.22378e-08
3.66066e-07
-1.18052e-08
3.70436e-07
-1.13758e-08
3.74669e-07
-1.09497e-08
3.78766e-07
-1.05272e-08
3.82727e-07
-1.01083e-08
3.86554e-07
-9.69318e-09
3.90248e-07
-9.28165e-09
3.93809e-07
-8.8736e-09
3.97239e-07
-8.46883e-09
4.00538e-07
-8.06683e-09
4.03707e-07
-7.6669e-09
4.06746e-07
-7.26801e-09
4.09655e-07
-6.86875e-09
4.12432e-07
-6.46713e-09
4.15077e-07
-6.06039e-09
4.17586e-07
-5.64457e-09
4.19954e-07
-5.2142e-09
4.22174e-07
-4.76165e-09
4.24238e-07
-4.27614e-09
4.2613e-07
-3.74173e-09
4.27834e-07
-3.13581e-09
4.29328e-07
-2.42547e-09
4.30577e-07
-1.56219e-09
4.31525e-07
-4.74066e-10
4.32086e-07
9.58716e-10
4.32143e-07
2.93057e-09
4.31539e-07
5.82886e-09
4.30084e-07
1.02195e-08
4.27737e-07
1.75233e-08
2.97259e-08
4.24811e-07
-3.14641e-09
-4.51435e-09
-9.80419e-09
8.87726e-10
-1.75984e-08
7.23258e-09
-2.59546e-08
1.28635e-08
-3.47558e-08
1.79669e-08
-4.3995e-08
2.26259e-08
-5.36965e-08
2.68724e-08
-6.38831e-08
3.07224e-08
-7.45534e-08
3.41955e-08
-8.56706e-08
3.73188e-08
-9.71648e-08
4.01216e-08
-1.08943e-07
4.26272e-08
-1.209e-07
4.4849e-08
-1.32934e-07
4.67902e-08
-1.4495e-07
4.84468e-08
-1.56869e-07
4.98125e-08
-1.68623e-07
5.08814e-08
-1.80162e-07
5.16515e-08
-1.91447e-07
5.21261e-08
-2.02451e-07
5.23138e-08
-2.1316e-07
5.22285e-08
-2.23562e-07
5.18879e-08
-2.33653e-07
5.13123e-08
-2.43431e-07
5.05236e-08
-2.52896e-07
4.95442e-08
-2.62046e-07
4.83966e-08
-2.7088e-07
4.71023e-08
-2.79397e-07
4.56816e-08
-2.87593e-07
4.41532e-08
-2.95465e-07
4.25336e-08
-3.03005e-07
4.08379e-08
-3.10209e-07
3.90789e-08
-3.17069e-07
3.72678e-08
-3.23579e-07
3.5414e-08
-3.29729e-07
3.35255e-08
-3.35514e-07
3.1609e-08
-3.40924e-07
2.96699e-08
-3.45953e-07
2.7713e-08
-3.50594e-07
2.57421e-08
-3.5484e-07
2.37605e-08
-3.58686e-07
2.17709e-08
-3.62125e-07
1.9776e-08
-3.65154e-07
1.77781e-08
-3.67768e-07
1.57793e-08
-3.69965e-07
1.37819e-08
-3.71742e-07
1.17882e-08
-3.73099e-07
9.8006e-09
-3.74036e-07
7.82162e-09
-3.74553e-07
5.85409e-09
-3.74651e-07
3.9011e-09
-3.74333e-07
1.96595e-09
-3.73601e-07
5.21393e-11
-3.72455e-07
-1.83695e-09
-3.70896e-07
-3.69867e-09
-3.68925e-07
-5.53159e-09
-3.66546e-07
-7.33457e-09
-3.63762e-07
-9.10593e-09
-3.60581e-07
-1.08436e-08
-3.57009e-07
-1.25453e-08
-3.53052e-07
-1.4209e-08
-3.4872e-07
-1.58324e-08
-3.44022e-07
-1.74134e-08
-3.38967e-07
-1.89502e-08
-3.33566e-07
-2.04407e-08
-3.27829e-07
-2.18835e-08
-3.21768e-07
-2.32769e-08
-3.15393e-07
-2.46196e-08
-3.08717e-07
-2.59104e-08
-3.01753e-07
-2.71485e-08
-2.94511e-07
-2.8333e-08
-2.87004e-07
-2.94633e-08
-2.79246e-07
-3.0539e-08
-2.71248e-07
-3.15598e-08
-2.63023e-07
-3.25258e-08
-2.54583e-07
-3.34369e-08
-2.45942e-07
-3.42936e-08
-2.37112e-07
-3.5096e-08
-2.28105e-07
-3.5845e-08
-2.18933e-07
-3.65412e-08
-2.09609e-07
-3.71857e-08
-2.00143e-07
-3.77793e-08
-1.90549e-07
-3.83231e-08
-1.80837e-07
-3.88171e-08
-1.71018e-07
-3.92624e-08
-1.61102e-07
-3.96609e-08
-1.51102e-07
-4.00138e-08
-1.41027e-07
-4.03222e-08
-1.30886e-07
-4.05872e-08
-1.2069e-07
-4.08103e-08
-1.10449e-07
-4.09927e-08
-1.0017e-07
-4.11358e-08
-8.98641e-08
-4.12412e-08
-7.95384e-08
-4.13101e-08
-6.92015e-08
-4.13441e-08
-5.88612e-08
-4.13444e-08
-4.85251e-08
-4.13126e-08
-3.82003e-08
-4.12498e-08
-2.78941e-08
-4.11574e-08
-1.76129e-08
-4.10368e-08
-7.36321e-09
-4.08891e-08
2.84871e-09
-4.07155e-08
1.30168e-08
-4.05172e-08
2.31358e-08
-4.02956e-08
3.32008e-08
-4.00518e-08
4.32074e-08
-3.97869e-08
5.31508e-08
-3.95019e-08
6.30266e-08
-3.91976e-08
7.28305e-08
-3.88743e-08
8.25582e-08
-3.85322e-08
9.22059e-08
-3.81717e-08
1.0177e-07
-3.77939e-08
1.11248e-07
-3.74005e-08
1.20634e-07