/*--------------------------------*- C++ -*----------------------------------*\
  =========                 |
  \\      /  F ield         | OpenFOAM: The Open Source CFD Toolbox
   \\    /   O peration     | Website:  https://openfoam.org
    \\  /    A nd           | Version:  7
     \\/     M anipulation  |
\*---------------------------------------------------------------------------*/
FoamFile
{
    version     2.0;
    format      ascii;
    class       volVectorField;
    location    "200";
    object      U;
}
// * * * * * * * * * * * * * * * * * * * * * * * * * * * * * * * * * * * * * //

dimensions      [0 1 -1 0 0 0 0];

internalField   nonuniform List<vector> 
12225
(
(0.0792886 -0.0692418 0)
(0.149124 -0.0159589 0)
(0.200772 -0.0094622 0)
(0.247507 -0.00839726 0)
(0.288599 -0.00759159 0)
(0.324107 -0.00662476 0)
(0.354179 -0.00574293 0)
(0.379632 -0.00499985 0)
(0.401336 -0.00438143 0)
(0.419989 -0.0038716 0)
(0.436166 -0.00345617 0)
(0.450362 -0.00312696 0)
(0.463034 -0.00288643 0)
(0.474636 -0.00275713 0)
(0.485842 -0.00280267 0)
(0.497504 -0.00328741 0)
(0.513075 -0.00453047 0)
(0.534214 -0.0139199 0)
(0.204527 -0.0223796 0)
(0.255387 -0.0233978 0)
(0.323198 -0.0203987 0)
(0.380088 -0.0182284 0)
(0.428548 -0.0164635 0)
(0.470802 -0.0146322 0)
(0.50743 -0.0129763 0)
(0.539235 -0.0115554 0)
(0.567019 -0.0103555 0)
(0.591447 -0.00935524 0)
(0.613088 -0.00853482 0)
(0.632438 -0.00788603 0)
(0.649956 -0.00742231 0)
(0.666092 -0.0072015 0)
(0.681425 -0.00737993 0)
(0.696592 -0.00843354 0)
(0.713172 -0.0116598 0)
(0.729476 -0.0210719 0)
(0.296251 -0.0313124 0)
(0.338013 -0.0373662 0)
(0.405694 -0.033417 0)
(0.461986 -0.0300548 0)
(0.509957 -0.0271639 0)
(0.55206 -0.0243866 0)
(0.588932 -0.0219023 0)
(0.621307 -0.0197519 0)
(0.649876 -0.0179189 0)
(0.675225 -0.0163771 0)
(0.697863 -0.0151023 0)
(0.718241 -0.0140865 0)
(0.736776 -0.0133513 0)
(0.753861 -0.0129773 0)
(0.769934 -0.013166 0)
(0.785344 -0.0144354 0)
(0.8005 -0.017919 0)
(0.813162 -0.0257954 0)
(0.391169 -0.0438232 0)
(0.422168 -0.0520745 0)
(0.482241 -0.0478637 0)
(0.53418 -0.0433708 0)
(0.579337 -0.039279 0)
(0.619374 -0.0354852 0)
(0.654763 -0.0321016 0)
(0.686117 -0.0291549 0)
(0.714008 -0.0266266 0)
(0.738925 -0.0244854 0)
(0.761309 -0.0227032 0)
(0.781555 -0.0212708 0)
(0.800021 -0.0202138 0)
(0.817032 -0.019622 0)
(0.832897 -0.0197008 0)
(0.847752 -0.0208996 0)
(0.861518 -0.0239754 0)
(0.87222 -0.0296653 0)
(0.492395 -0.0514218 0)
(0.512541 -0.0647903 0)
(0.561571 -0.0619112 0)
(0.60704 -0.0567989 0)
(0.647894 -0.0516963 0)
(0.684707 -0.0469793 0)
(0.717616 -0.0427508 0)
(0.747051 -0.0390414 0)
(0.773443 -0.0358365 0)
(0.797179 -0.0331034 0)
(0.818619 -0.0308125 0)
(0.838092 -0.0289536 0)
(0.855892 -0.0275514 0)
(0.872274 -0.0266903 0)
(0.88744 -0.0265468 0)
(0.901394 -0.0274476 0)
(0.913925 -0.0297947 0)
(0.923421 -0.0335703 0)
(0.60036 -0.0545068 0)
(0.61032 -0.074592 0)
(0.646787 -0.0742692 0)
(0.684396 -0.0693193 0)
(0.719741 -0.0636125 0)
(0.75239 -0.0581947 0)
(0.78203 -0.0532655 0)
(0.808849 -0.0488951 0)
(0.833115 -0.0450865 0)
(0.855101 -0.0418133 0)
(0.875078 -0.0390484 0)
(0.893299 -0.0367812 0)
(0.909995 -0.0350319 0)
(0.925349 -0.0338686 0)
(0.939481 -0.0334213 0)
(0.952328 -0.0338904 0)
(0.963695 -0.0354201 0)
(0.972306 -0.0376924 0)
(0.714676 -0.0541881 0)
(0.715675 -0.0811189 0)
(0.739307 -0.084222 0)
(0.768051 -0.0802869 0)
(0.796936 -0.0745176 0)
(0.824593 -0.0687053 0)
(0.850267 -0.0632795 0)
(0.873855 -0.0583921 0)
(0.895447 -0.054085 0)
(0.915187 -0.050349 0)
(0.933248 -0.047165 0)
(0.949807 -0.044524 0)
(0.965023 -0.0424397 0)
(0.979016 -0.0409588 0)
(0.991845 -0.0401607 0)
(1.00342 -0.0401404 0)
(1.01361 -0.0408807 0)
(1.02142 -0.0419911 0)
(0.834397 -0.0513139 0)
(0.828081 -0.0842153 0)
(0.839659 -0.0912736 0)
(0.858868 -0.0891369 0)
(0.880629 -0.0839266 0)
(0.902577 -0.078096 0)
(0.923659 -0.0724302 0)
(0.943458 -0.0672103 0)
(0.961871 -0.0625406 0)
(0.978907 -0.0584434 0)
(0.994636 -0.0549151 0)
(1.00915 -0.0519514 0)
(1.02255 -0.0495599 0)
(1.03488 -0.0477657 0)
(1.04616 -0.0466031 0)
(1.05631 -0.0460901 0)
(1.06526 -0.0461235 0)
(1.07218 -0.0463413 0)
(0.958155 -0.0466635 0)
(0.946515 -0.0839416 0)
(0.947553 -0.0950673 0)
(0.957163 -0.0953607 0)
(0.971341 -0.0913139 0)
(0.98705 -0.0859077 0)
(1.003 -0.0803053 0)
(1.01851 -0.0749786 0)
(1.03328 -0.0701157 0)
(1.04719 -0.065786 0)
(1.0602 -0.0620106 0)
(1.07232 -0.058795 0)
(1.08357 -0.0561437 0)
(1.09396 -0.0540638 0)
(1.10347 -0.0525553 0)
(1.11202 -0.0515872 0)
(1.1196 -0.0510225 0)
(1.12549 -0.0505643 0)
(1.08433 -0.0410011 0)
(1.06953 -0.0806088 0)
(1.06197 -0.0954509 0)
(1.06267 -0.0985364 0)
(1.06906 -0.0961743 0)
(1.07824 -0.0916475 0)
(1.08864 -0.0864517 0)
(1.09945 -0.0812808 0)
(1.11018 -0.0764269 0)
(1.12058 -0.0720213 0)
(1.13051 -0.0681202 0)
(1.1399 -0.0647458 0)
(1.14871 -0.0619044 0)
(1.15689 -0.0595918 0)
(1.16441 -0.0577864 0)
(1.17118 -0.0564319 0)
(1.17725 -0.0553904 0)
(1.18191 -0.0544337 0)
(1.21121 -0.0349817 0)
(1.19524 -0.0747553 0)
(1.18132 -0.0925166 0)
(1.17432 -0.0984056 0)
(1.17324 -0.0980943 0)
(1.17584 -0.0948485 0)
(1.18049 -0.0904094 0)
(1.1863 -0.085673 0)
(1.19267 -0.0810536 0)
(1.19924 -0.0767532 0)
(1.20578 -0.072872 0)
(1.21215 -0.0694551 0)
(1.21825 -0.0665169 0)
(1.22399 -0.0640505 0)
(1.22931 -0.0620247 0)
(1.23412 -0.0603761 0)
(1.23849 -0.0589844 0)
(1.24172 -0.0576812 0)
(1.3266 -0.0294848 0)
(1.31093 -0.0677494 0)
(1.29338 -0.0871608 0)
(1.28073 -0.0952857 0)
(1.27358 -0.0969506 0)
(1.2704 -0.0951374 0)
(1.26982 -0.0916679 0)
(1.27094 -0.0875741 0)
(1.27314 -0.0833775 0)
(1.27599 -0.079348 0)
(1.2792 -0.0756306 0)
(1.28258 -0.0722968 0)
(1.28599 -0.0693737 0)
(1.2893 -0.0668585 0)
(1.29242 -0.0647213 0)
(1.29528 -0.0629031 0)
(1.29792 -0.0613024 0)
(1.29965 -0.0598149 0)
(1.43841 -0.0243287 0)
(1.42409 -0.0598631 0)
(1.40477 -0.0799276 0)
(1.38789 -0.0897781 0)
(1.37564 -0.0932897 0)
(1.36723 -0.0929922 0)
(1.3617 -0.0906508 0)
(1.35824 -0.0873751 0)
(1.35628 -0.0837642 0)
(1.35536 -0.0801532 0)
(1.35517 -0.0767291 0)
(1.35547 -0.0735908 0)
(1.35607 -0.0707823 0)
(1.35685 -0.0683104 0)
(1.35768 -0.0661519 0)
(1.35848 -0.064259 0)
(1.35929 -0.0625505 0)
(1.35941 -0.0609817 0)
(1.56063 -0.0191984 0)
(1.54857 -0.050261 0)
(1.52921 -0.0697434 0)
(1.5094 -0.0806821 0)
(1.49278 -0.0858764 0)
(1.47942 -0.0872273 0)
(1.46881 -0.0862778 0)
(1.46046 -0.0841077 0)
(1.45392 -0.0813514 0)
(1.44877 -0.0783984 0)
(1.44468 -0.0754763 0)
(1.44141 -0.0727139 0)
(1.43875 -0.0701762 0)
(1.43655 -0.0678853 0)
(1.43467 -0.0658323 0)
(1.43302 -0.0639859 0)
(1.43161 -0.0622928 0)
(1.42977 -0.0607426 0)
(1.68899 -0.0143831 0)
(1.67948 -0.0394638 0)
(1.66175 -0.0567968 0)
(1.64088 -0.0676564 0)
(1.6213 -0.0738478 0)
(1.60395 -0.0766347 0)
(1.58879 -0.0771401 0)
(1.57573 -0.0762619 0)
(1.56455 -0.0746071 0)
(1.55496 -0.072569 0)
(1.54669 -0.0703946 0)
(1.53951 -0.0682354 0)
(1.53323 -0.0661771 0)
(1.52768 -0.0642603 0)
(1.52272 -0.0624944 0)
(1.51826 -0.0608687 0)
(1.51427 -0.0593594 0)
(1.51013 -0.0579751 0)
(1.81513 -0.00993061 0)
(1.80781 -0.0281291 0)
(1.79263 -0.0417019 0)
(1.77253 -0.0509591 0)
(1.75188 -0.0569658 0)
(1.73218 -0.0604355 0)
(1.71379 -0.0620208 0)
(1.69695 -0.0623377 0)
(1.68172 -0.0618531 0)
(1.66804 -0.0608899 0)
(1.65575 -0.0596684 0)
(1.6447 -0.0583361 0)
(1.63473 -0.0569861 0)
(1.6257 -0.0556717 0)
(1.61751 -0.0544188 0)
(1.61003 -0.0532359 0)
(1.60323 -0.0521235 0)
(1.5966 -0.0511052 0)
(1.924 -0.0056836 0)
(1.91819 -0.0165258 0)
(1.90545 -0.0251042 0)
(1.88707 -0.0313277 0)
(1.86691 -0.0357398 0)
(1.84666 -0.0387015 0)
(1.82683 -0.040508 0)
(1.80781 -0.0414694 0)
(1.78989 -0.0418471 0)
(1.7732 -0.0418341 0)
(1.75776 -0.0415699 0)
(1.74351 -0.0411557 0)
(1.73038 -0.0406616 0)
(1.71828 -0.0401336 0)
(1.70714 -0.0395995 0)
(1.69686 -0.0390767 0)
(1.68741 -0.038578 0)
(1.67842 -0.0381351 0)
(1.99017 -0.00132471 0)
(1.98507 -0.00426502 0)
(1.97391 -0.00687123 0)
(1.95704 -0.00894656 0)
(1.93785 -0.0106095 0)
(1.91804 -0.011935 0)
(1.89813 -0.0129664 0)
(1.8785 -0.0137673 0)
(1.85954 -0.0144018 0)
(1.84148 -0.0149183 0)
(1.82443 -0.0153518 0)
(1.80842 -0.0157285 0)
(1.79345 -0.0160677 0)
(1.77948 -0.0163829 0)
(1.76648 -0.0166835 0)
(1.7544 -0.0169773 0)
(1.74317 -0.0172735 0)
(1.73266 -0.0175987 0)
(1.97278 0.00302834 0)
(1.96829 0.00864223 0)
(1.95748 0.0130664 0)
(1.94082 0.0162153 0)
(1.92176 0.0183033 0)
(1.90208 0.0195383 0)
(1.88235 0.0200968 0)
(1.86295 0.0201394 0)
(1.84425 0.0197994 0)
(1.82647 0.0191805 0)
(1.80972 0.0183628 0)
(1.794 0.0174085 0)
(1.77932 0.0163656 0)
(1.76563 0.01527 0)
(1.75289 0.0141485 0)
(1.74102 0.0130191 0)
(1.72997 0.0118913 0)
(1.71979 0.0107549 0)
(1.85389 0.00811093 0)
(1.84654 0.0230636 0)
(1.83218 0.0345172 0)
(1.8126 0.0423964 0)
(1.79189 0.0474425 0)
(1.77177 0.0502799 0)
(1.75263 0.0514298 0)
(1.73469 0.0513714 0)
(1.71813 0.0504925 0)
(1.70295 0.0490751 0)
(1.6891 0.0473193 0)
(1.67646 0.0453676 0)
(1.66491 0.0433197 0)
(1.65436 0.0412441 0)
(1.64468 0.0391866 0)
(1.6358 0.0371764 0)
(1.62761 0.035229 0)
(1.62025 0.0333421 0)
(1.6912 0.0142669 0)
(1.68142 0.0384621 0)
(1.66393 0.0552051 0)
(1.64291 0.0655493 0)
(1.6229 0.0712281 0)
(1.60509 0.0735561 0)
(1.5894 0.0735919 0)
(1.57568 0.072169 0)
(1.56376 0.0698748 0)
(1.5534 0.0671015 0)
(1.54434 0.0640996 0)
(1.53637 0.0610291 0)
(1.52933 0.0579897 0)
(1.52305 0.0550405 0)
(1.51742 0.0522148 0)
(1.51234 0.0495293 0)
(1.50772 0.0469881 0)
(1.50371 0.0445828 0)
(1.49891 0.0216343 0)
(1.48571 0.05454 0)
(1.46668 0.0741772 0)
(1.44776 0.0844126 0)
(1.43251 0.0885627 0)
(1.42087 0.0888105 0)
(1.41198 0.086752 0)
(1.40519 0.0834865 0)
(1.40003 0.0796449 0)
(1.39608 0.0756006 0)
(1.39304 0.0715658 0)
(1.39066 0.067658 0)
(1.38878 0.063939 0)
(1.38728 0.0604371 0)
(1.38606 0.0571607 0)
(1.38506 0.0541068 0)
(1.38419 0.0512655 0)
(1.38365 0.0486203 0)
(1.29314 0.0305215 0)
(1.27751 0.0697325 0)
(1.26111 0.0886746 0)
(1.24931 0.0960409 0)
(1.243 0.0970316 0)
(1.24061 0.0945752 0)
(1.24062 0.0904224 0)
(1.24211 0.085598 0)
(1.2445 0.0806416 0)
(1.24741 0.0758006 0)
(1.25055 0.0711993 0)
(1.25377 0.0668947 0)
(1.25696 0.0629025 0)
(1.26005 0.0592172 0)
(1.263 0.055823 0)
(1.26579 0.0526993 0)
(1.2684 0.0498249 0)
(1.271 0.0471775 0)
(1.08551 0.0402399 0)
(1.07088 0.081125 0)
(1.06279 0.0956858 0)
(1.06268 0.0986488 0)
(1.06817 0.0962676 0)
(1.07642 0.0915397 0)
(1.08587 0.0859758 0)
(1.09568 0.0803464 0)
(1.10537 0.0749472 0)
(1.11467 0.069899 0)
(1.12348 0.0652436 0)
(1.13172 0.060981 0)
(1.13938 0.0570921 0)
(1.14648 0.053549 0)
(1.15303 0.0503208 0)
(1.15907 0.0473763 0)
(1.16462 0.0446882 0)
(1.16986 0.0422325 0)
(0.884965 0.048921 0)
(0.876073 0.0857576 0)
(0.881777 0.0938223 0)
(0.896451 0.0925474 0)
(0.914419 0.0877464 0)
(0.933069 0.0817972 0)
(0.951305 0.0758022 0)
(0.968539 0.0701297 0)
(0.984566 0.0648978 0)
(0.999345 0.0601346 0)
(1.0129 0.0558256 0)
(1.0253 0.0519377 0)
(1.03663 0.0484322 0)
(1.04697 0.0452689 0)
(1.05641 0.0424094 0)
(1.06504 0.0398178 0)
(1.07291 0.037465 0)
(1.08022 0.0353295 0)
(0.69829 0.0538587 0)
(0.699769 0.0819386 0)
(0.723184 0.0837031 0)
(0.753172 0.0795879 0)
(0.782519 0.0737462 0)
(0.81024 0.0677705 0)
(0.835845 0.0621704 0)
(0.859168 0.0570586 0)
(0.880308 0.0524529 0)
(0.899433 0.0483306 0)
(0.91672 0.0446496 0)
(0.932347 0.0413627 0)
(0.946486 0.0384234 0)
(0.959293 0.0357891 0)
(0.97091 0.0334212 0)
(0.981465 0.0312852 0)
(0.991058 0.0293533 0)
(0.999883 0.0276114 0)
(0.530078 0.0518699 0)
(0.545257 0.0697405 0)
(0.587346 0.0673361 0)
(0.630728 0.0621314 0)
(0.66947 0.056695 0)
(0.704356 0.0516065 0)
(0.735672 0.0469691 0)
(0.763647 0.0428131 0)
(0.788627 0.0391212 0)
(0.810959 0.0358538 0)
(0.83095 0.0329633 0)
(0.848877 0.0304017 0)
(0.864985 0.0281255 0)
(0.87949 0.0260964 0)
(0.89258 0.0242807 0)
(0.904421 0.0226485 0)
(0.915142 0.0211749 0)
(0.924944 0.0198569 0)
(0.382207 0.0412401 0)
(0.41276 0.0512816 0)
(0.470189 0.0478092 0)
(0.523669 0.0431388 0)
(0.569234 0.0390629 0)
(0.60919 0.0353168 0)
(0.64449 0.0319015 0)
(0.675628 0.0288682 0)
(0.703133 0.0262003 0)
(0.727495 0.0238595 0)
(0.749131 0.0218047 0)
(0.768398 0.0199961 0)
(0.785603 0.0183983 0)
(0.80101 0.016981 0)
(0.814843 0.0157184 0)
(0.827298 0.0145871 0)
(0.838527 0.0135642 0)
(0.848743 0.0126568 0)
(0.251784 0.0300845 0)
(0.298433 0.0322283 0)
(0.36212 0.0294612 0)
(0.420543 0.0261454 0)
(0.469749 0.0235633 0)
(0.512324 0.0211291 0)
(0.549535 0.0188575 0)
(0.582001 0.0168493 0)
(0.610371 0.0151024 0)
(0.635255 0.0135858 0)
(0.65716 0.0122677 0)
(0.676509 0.011118 0)
(0.693656 0.0101106 0)
(0.708902 0.00922354 0)
(0.722496 0.00843875 0)
(0.734655 0.00773933 0)
(0.745543 0.00710156 0)
(0.755383 0.00653617 0)
(0.103985 0.0790075 0)
(0.181198 0.0254198 0)
(0.234639 0.0163639 0)
(0.287403 0.0138687 0)
(0.333166 0.012437 0)
(0.372441 0.0110516 0)
(0.406236 0.00972287 0)
(0.435137 0.00855709 0)
(0.459857 0.00755893 0)
(0.481096 0.00670372 0)
(0.499418 0.00596874 0)
(0.515281 0.00533421 0)
(0.529059 0.00478316 0)
(0.541067 0.0043023 0)
(0.551559 0.0038789 0)
(0.560755 0.00350794 0)
(0.568805 0.00316581 0)
(0.575866 0.00286474 0)
(0.00137703 -0.00332921 -1.09096e-20)
(0.00589264 -0.00630041 1.28676e-20)
(0.0108232 -0.00660561 0)
(0.0147271 -0.00525306 0)
(0.0168698 -0.00321588 0)
(0.0171515 -0.00115939 -9.98897e-21)
(0.0157671 0.000551851 0)
(0.0131352 0.00181946 0)
(0.00954716 0.00273632 0)
(0.00519624 0.00345987 0)
(0.000176886 0.00410618 1.09651e-20)
(-0.00550949 0.00473784 0)
(-0.0119133 0.00540788 0)
(-0.0190845 0.00615006 0)
(-0.0270586 0.00696602 0)
(-0.0358547 0.00783532 6.94483e-21)
(-0.0454662 0.00872215 0)
(-0.0558624 0.00958995 0)
(-0.0669877 0.0104061 0)
(-0.0787658 0.0111439 0)
(-0.0911066 0.0117844 0)
(-0.10391 0.0123141 0)
(-0.11707 0.0127232 0)
(-0.130478 0.0130082 3.67746e-21)
(-0.144029 0.01317 -3.47579e-21)
(-0.157623 0.0132138 3.30072e-21)
(-0.171167 0.0131483 3.14801e-21)
(-0.184577 0.0129845 0)
(-0.197778 0.0127345 0)
(-0.210705 0.0124106 -2.78998e-21)
(-0.223302 0.0120248 -2.69504e-21)
(-0.235524 0.0115882 0)
(-0.24733 0.0111111 0)
(-0.25869 0.0106026 -2.45607e-21)
(-0.269578 0.0100704 0)
(-0.279976 0.00952124 0)
(-0.289867 0.00896056 2.25861e-21)
(-0.299239 0.00839289 0)
(-0.308086 0.00782187 2.13797e-21)
(-0.316399 0.00725033 4.15814e-21)
(-0.324176 0.00668048 0)
(-0.331414 0.0061139 0)
(-0.33811 0.0055517 0)
(-0.344264 0.00499448 0)
(-0.349876 0.00444237 0)
(-0.354946 0.003895 3.44026e-21)
(-0.359473 0.00335149 3.31346e-21)
(-0.363457 0.00281036 3.18351e-21)
(-0.366897 0.00226963 0)
(-0.369791 0.00172706 -2.913e-21)
(-0.372134 0.00118069 0)
(-0.373923 0.000630674 2.62682e-21)
(-0.375158 8.37182e-05 2.47745e-21)
(-0.375831 -0.000439727 0)
(-0.37592 -0.000910078 0)
(-0.375514 -0.00132395 0)
(-0.374643 -0.00170164 1.82582e-21)
(-0.373324 -0.00205617 0)
(-0.371574 -0.00239366 0)
(-0.369405 -0.00271665 0)
(-0.366829 -0.00302643 0)
(-0.363856 -0.0033234 0)
(-0.360498 -0.00360789 0)
(-0.356765 -0.00387985 0)
(-0.352668 -0.00413944 0)
(-0.34822 -0.00438655 -2.0844e-23)
(-0.343431 -0.00462136 0)
(-0.338315 -0.00484378 0)
(-0.332884 -0.00505406 -6.94237e-22)
(-0.32715 -0.00525217 -9.46214e-22)
(-0.321126 -0.00543842 0)
(-0.314826 -0.00561282 1.47143e-21)
(-0.308262 -0.00577573 -1.74501e-21)
(-0.301447 -0.00592724 0)
(-0.294395 -0.00606776 2.31501e-21)
(-0.287118 -0.00619742 0)
(-0.27963 -0.00631668 0)
(-0.271943 -0.0064257 -3.23046e-21)
(-0.264071 -0.00652492 0)
(-0.256026 -0.0066144 3.88411e-21)
(-0.24782 -0.0066945 0)
(-0.239465 -0.00676696 -4.57558e-21)
(-0.230973 -0.00683124 -4.93658e-21)
(-0.222357 -0.00688639 -5.308e-21)
(-0.213628 -0.00693361 -1.13811e-20)
(-0.204796 -0.00697359 1.21697e-20)
(-0.195874 -0.00700661 0)
(-0.186871 -0.00703297 0)
(-0.177797 -0.00705296 0)
(-0.168664 -0.00706699 1.55823e-20)
(-0.15948 -0.00707542 1.65073e-20)
(-0.150255 -0.00707868 -1.74643e-20)
(-0.140999 -0.0070771 0)
(-0.13172 -0.00707099 1.94826e-20)
(-0.122426 -0.00706071 2.05482e-20)
(-0.113126 -0.00704656 2.16549e-20)
(-0.103828 -0.0070289 0)
(-0.094538 -0.00700805 0)
(-0.0852643 -0.00698437 0)
(-0.0760136 -0.00695812 2.65507e-20)
(-0.0667923 -0.0069296 0)
(-0.057607 -0.00689913 0)
(-0.0484635 -0.00686694 -3.0818e-20)
(-0.0393675 -0.00683338 0)
(-0.0303242 -0.00679852 0)
(-0.0213385 -0.00676339 -3.574e-20)
(-0.0124176 -0.00672719 0)
(-0.00357214 -0.0066803 0)
(0.00519141 -0.00658982 4.03207e-20)
(0.0138824 -0.00645435 4.00873e-20)
(0.0224977 -0.00630579 0)
(0.0310258 -0.00615616 -3.96313e-20)
(0.0394625 -0.00600811 0)
(0.0478046 -0.00586215 3.91892e-20)
(0.0560493 -0.00571798 0)
(0.0641938 -0.00557582 3.87602e-20)
(0.0722356 -0.00543538 3.85506e-20)
(0.0801722 -0.00529683 0)
(0.0880014 -0.00515987 0)
(0.0957203 -0.00502463 0)
(0.103326 -0.00489095 0)
(0.110816 -0.00475906 0)
(0.118187 -0.00462878 0)
(0.125439 -0.00450032 0)
(0.132569 -0.00437338 3.69917e-20)
(0.139577 -0.00424815 -3.68123e-20)
(0.14646 -0.00412442 0)
(0.153215 -0.00400242 0)
(0.159843 -0.00388197 0)
(0.16634 -0.00376329 0)
(0.172706 -0.00364616 -7.19368e-20)
(0.178939 -0.00353072 0)
(0.185037 -0.00341695 7.13132e-20)
(0.191 -0.00330501 -7.10127e-20)
(0.196827 -0.00319476 0)
(0.202516 -0.00308632 0)
(0.208067 -0.00297961 0)
(0.213479 -0.00287471 6.98885e-20)
(0.218751 -0.00277154 6.96271e-20)
(0.223884 -0.00267017 0)
(0.228877 -0.00257059 6.91273e-20)
(0.233729 -0.00247287 6.88892e-20)
(0.238439 -0.00237701 -6.86591e-20)
(0.243009 -0.00228304 0)
(0.247439 -0.00219096 0)
(0.251728 -0.00210077 -6.80157e-20)
(0.255877 -0.00201248 0)
(0.259887 -0.00192608 0)
(0.263757 -0.00184155 0)
(0.26749 -0.00175891 0)
(0.271086 -0.00167817 6.70979e-20)
(0.274544 -0.00159934 6.69372e-20)
(0.277868 -0.00152241 0)
(0.281056 -0.00144736 6.66381e-20)
(0.284112 -0.00137418 0)
(0.287035 -0.00130287 0)
(0.289827 -0.00123331 6.62438e-20)
(0.292489 -0.00116541 0)
(0.295022 -0.00109922 6.6017e-20)
(0.297427 -0.00103469 0)
(0.299704 -0.00097172 0)
(0.301855 -0.000910127 6.57321e-20)
(0.303878 -0.000849706 0)
(0.305774 -0.000790187 6.55808e-20)
(0.307541 -0.000731239 0)
(0.309177 -0.000672381 0)
(0.310676 -0.000612959 0)
(0.312033 -0.00055206 -6.53947e-20)
(0.313236 -0.000488195 0)
(0.314268 -0.00041933 6.53888e-20)
(0.315112 -0.000337915 0)
(0.315694 -0.00023414 0)
(0.315941 -0.000106824 0)
(0.315781 4.92616e-05 0)
(0.315105 0.000249144 0)
(0.313647 0.000535078 0)
(0.311257 0.000967025 0)
(0.306358 0.00171228 -1.35479e-19)
(0.30098 0.0030314 0)
(0.279483 0.00551307 0)
(0.00150133 -0.0113522 3.09048e-20)
(0.00490328 -0.0162714 -2.67586e-20)
(0.00600854 -0.0125388 0)
(0.00512934 -0.00678794 9.70306e-21)
(0.00267715 -0.00093265 0)
(-0.00114167 0.00434628 4.01931e-21)
(-0.00617581 0.0087661 -7.45818e-21)
(-0.0123779 0.012317 -7.03275e-21)
(-0.0196706 0.0151753 0)
(-0.0279784 0.0175828 -6.29587e-21)
(-0.0372152 0.0197526 -3.0178e-21)
(-0.0472755 0.0218265 0)
(-0.0580583 0.0238744 0)
(-0.0694837 0.0259035 0)
(-0.0814734 0.0278799 0)
(-0.0939361 0.0297551 -2.28407e-21)
(-0.106777 0.0314775 0)
(-0.1199 0.032997 4.04563e-21)
(-0.133208 0.0342733 0)
(-0.146608 0.0352765 0)
(-0.160007 0.0359892 -3.52757e-21)
(-0.173317 0.0364073 0)
(-0.18646 0.0365408 3.26751e-21)
(-0.199365 0.0364071 -1.59871e-21)
(-0.211976 0.0360294 1.5482e-21)
(-0.224241 0.0354347 -1.50294e-21)
(-0.236123 0.0346517 -1.46218e-21)
(-0.24759 0.0337092 0)
(-0.258618 0.0326352 0)
(-0.269189 0.0314555 1.36007e-21)
(-0.279292 0.0301937 -1.30696e-21)
(-0.288917 0.0288702 0)
(-0.298061 0.027503 0)
(-0.30672 0.0261069 1.25041e-21)
(-0.314894 0.0246942 0)
(-0.322583 0.0232749 0)
(-0.329789 0.0218571 -1.17415e-21)
(-0.336513 0.0204467 0)
(-0.342758 0.0190486 1.11013e-21)
(-0.348527 0.0176662 -2.19095e-21)
(-0.353822 0.0163022 0)
(-0.358645 0.0149583 0)
(-0.362999 0.0136357 -4.03186e-21)
(-0.366886 0.0123351 -3.91478e-21)
(-0.37031 0.0110569 -3.79357e-21)
(-0.373273 0.00980105 1.8357e-21)
(-0.375778 0.00856734 -1.76497e-21)
(-0.37783 0.00735533 -5.0983e-21)
(-0.379434 0.00616448 3.26342e-21)
(-0.380596 0.00499429 1.54846e-21)
(-0.381328 0.00384452 0)
(-0.38164 0.00271575 -1.39178e-21)
(-0.381551 0.00161149 1.34552e-21)
(-0.381079 0.000543223 0)
(-0.380259 -0.000469379 0)
(-0.379051 -0.00142034 0)
(-0.377439 -0.00232059 -9.52733e-22)
(-0.375422 -0.00317895 0)
(-0.373004 -0.00400052 1.5787e-21)
(-0.37019 -0.0047878 0)
(-0.36699 -0.00554209 1.17988e-21)
(-0.36341 -0.00626379 0)
(-0.359462 -0.00695319 -7.61603e-22)
(-0.355155 -0.00761018 0)
(-0.350498 -0.00823489 3.24432e-22)
(-0.345503 -0.00882721 -9.51182e-23)
(-0.340181 -0.00938734 0)
(-0.334543 -0.00991529 3.65405e-22)
(-0.328601 -0.0104114 3.53254e-22)
(-0.322366 -0.010876 4.76451e-22)
(-0.315851 -0.0113094 0)
(-0.309067 -0.011712 6.16552e-22)
(-0.302027 -0.0120844 8.57963e-22)
(-0.294744 -0.0124272 0)
(-0.287228 -0.0127411 -1.12187e-21)
(-0.279493 -0.0130267 2.38966e-21)
(-0.271551 -0.0132849 0)
(-0.263415 -0.0135165 1.5314e-21)
(-0.255095 -0.0137225 0)
(-0.246604 -0.0139039 -5.30718e-21)
(-0.237954 -0.0140617 0)
(-0.229156 -0.0141965 6.16964e-21)
(-0.220221 -0.0143076 2.24898e-21)
(-0.21116 -0.0143972 -2.25849e-21)
(-0.201985 -0.014467 -4.81492e-21)
(-0.192705 -0.0145174 5.11657e-21)
(-0.183332 -0.0145493 0)
(-0.173875 -0.0145634 0)
(-0.164343 -0.0145607 0)
(-0.154747 -0.0145421 -1.96632e-20)
(-0.145095 -0.0145085 -6.97311e-21)
(-0.135397 -0.0144608 7.29868e-21)
(-0.125661 -0.0144 0)
(-0.115895 -0.0143269 7.66705e-21)
(-0.106107 -0.0142422 -8.29877e-21)
(-0.0963047 -0.0141468 -8.6403e-21)
(-0.0864959 -0.0140414 0)
(-0.0766872 -0.0139268 0)
(-0.0668854 -0.0138038 0)
(-0.057097 -0.013673 -1.0051e-20)
(-0.0473282 -0.013535 0)
(-0.0375851 -0.0133907 2.1278e-20)
(-0.0278732 -0.0132404 3.31899e-20)
(-0.0181981 -0.0130845 -2.27918e-20)
(-0.0085649 -0.0129233 0)
(0.00102077 -0.0127566 -1.19705e-20)
(0.0105551 -0.0125832 0)
(0.0200406 -0.0124002 -2.49633e-20)
(0.0294727 -0.0121992 1.24951e-20)
(0.0388358 -0.0119816 1.26408e-20)
(0.0481246 -0.0117571 0)
(0.05734 -0.01153 3.9259e-20)
(0.0664788 -0.0113021 -2.63471e-20)
(0.0755381 -0.0110741 -1.34179e-20)
(0.0845148 -0.0108461 0)
(0.0934061 -0.0106183 -1.36491e-20)
(0.102209 -0.0103907 -4.10545e-20)
(0.110922 -0.0101636 0)
(0.119541 -0.00993683 -2.77238e-20)
(0.128065 -0.00971066 -2.79274e-20)
(0.136491 -0.00948509 -2.81244e-20)
(0.144815 -0.00926041 0)
(0.153036 -0.00903668 0)
(0.161153 -0.00881412 0)
(0.169163 -0.00859265 1.43366e-20)
(0.177065 -0.00837251 1.45965e-20)
(0.184857 -0.00815365 0)
(0.192538 -0.00793636 2.93403e-20)
(0.200105 -0.00772059 2.94937e-20)
(0.207556 -0.00750663 0)
(0.214892 -0.00729444 2.99372e-20)
(0.222109 -0.00708427 5.98565e-20)
(0.229207 -0.00687607 -3.02063e-20)
(0.236185 -0.00667009 -3.00623e-20)
(0.243041 -0.00646631 0)
(0.249774 -0.00626496 0)
(0.256384 -0.00606604 0)
(0.26287 -0.0058697 -3.08211e-20)
(0.269231 -0.00567596 3.07025e-20)
(0.275466 -0.00548495 6.1869e-20)
(0.281575 -0.00529676 -3.11565e-20)
(0.287557 -0.00511146 3.10527e-20)
(0.293412 -0.00492918 3.13685e-20)
(0.29914 -0.00474995 0)
(0.30474 -0.00457386 0)
(0.310214 -0.00440095 -3.1488e-20)
(0.315559 -0.00423127 0)
(0.320778 -0.00406486 0)
(0.32587 -0.00390175 6.37539e-20)
(0.330836 -0.00374198 0)
(0.335675 -0.00358557 3.19907e-20)
(0.34039 -0.00343252 -3.22349e-20)
(0.344979 -0.00328286 0)
(0.349444 -0.00313662 3.22755e-20)
(0.353785 -0.00299378 0)
(0.358004 -0.00285429 0)
(0.3621 -0.00271807 -3.26725e-20)
(0.366075 -0.00258501 6.5397e-20)
(0.369929 -0.00245499 -3.28419e-20)
(0.373662 -0.00232777 0)
(0.377276 -0.00220311 0)
(0.380768 -0.00208069 3.29932e-20)
(0.38414 -0.00196007 0)
(0.38739 -0.00184068 3.31689e-20)
(0.390516 -0.0017217 0)
(0.393515 -0.00160196 0)
(0.396382 -0.0014799 0)
(0.399111 -0.00135339 3.36112e-20)
(0.40169 -0.00121927 0)
(0.404107 -0.00107288 -3.38074e-20)
(0.406337 -0.000903955 0)
(0.408376 -0.000698875 0)
(0.41019 -0.000446868 6.8281e-20)
(0.411704 -0.000131591 -6.85687e-20)
(0.412827 0.00028561 0)
(0.413392 0.000869413 0)
(0.413307 0.00177165 0)
(0.411762 0.00320334 2.11511e-19)
(0.409986 0.0058936 0)
(0.4012 0.0108027 -1.4686e-19)
(0.000629135 -0.0153843 -3.1964e-22)
(-0.00053671 -0.0151907 2.72336e-20)
(-0.00392853 -0.00692032 0)
(-0.00860047 0.00166759 -1.17798e-20)
(-0.0142759 0.00956166 0)
(-0.0207679 0.0165735 0)
(-0.0280213 0.0226803 3.56955e-23)
(-0.0360481 0.0279317 3.70709e-21)
(-0.0448541 0.0324445 3.48199e-21)
(-0.0544116 0.0363775 3.35769e-21)
(-0.0646544 0.0398857 0)
(-0.0754858 0.0430839 0)
(-0.086793 0.046031 -2.91472e-21)
(-0.0984591 0.0487353 -5.5929e-21)
(-0.110371 0.0511711 5.37185e-21)
(-0.122425 0.0532979 0)
(-0.134526 0.0550757 4.97676e-21)
(-0.146589 0.0564722 -2.41967e-21)
(-0.15854 0.0574667 0)
(-0.170319 0.0580513 4.49138e-21)
(-0.181876 0.0582315 2.18795e-21)
(-0.193172 0.0580247 -4.23152e-21)
(-0.204181 0.0574578 -2.06629e-21)
(-0.214881 0.0565658 0)
(-0.225257 0.0553873 3.92474e-21)
(-0.235297 0.0539624 3.83989e-21)
(-0.244992 0.0523308 0)
(-0.254338 0.0505303 3.68921e-21)
(-0.263328 0.0485957 0)
(-0.271959 0.0465581 3.55677e-21)
(-0.280227 0.0444449 1.75199e-21)
(-0.288129 0.0422793 0)
(-0.295662 0.0400811 0)
(-0.302821 0.0378663 0)
(-0.309604 0.035648 0)
(-0.316006 0.0334365 0)
(-0.322024 0.0312398 0)
(-0.327653 0.029064 3.07878e-21)
(-0.332891 0.0269139 -4.52689e-21)
(-0.337735 0.0247927 0)
(-0.342179 0.0227031 0)
(-0.346223 0.0206468 0)
(-0.349864 0.0186251 2.36077e-24)
(-0.353098 0.0166389 2.66157e-21)
(-0.355926 0.0146891 5.1614e-21)
(-0.358347 0.0127764 -4.99359e-21)
(-0.360359 0.0109014 -2.41236e-21)
(-0.361966 0.00906515 2.31481e-21)
(-0.363168 0.00726905 1.03332e-23)
(-0.363968 0.00551511 2.13329e-21)
(-0.364373 0.00380621 0)
(-0.364386 0.00214646 1.92986e-21)
(-0.364014 0.000541098 2.03412e-23)
(-0.363258 -0.00100552 0)
(-0.362116 -0.00249594 0)
(-0.360586 -0.00393463 -1.47509e-21)
(-0.358667 -0.00532219 0)
(-0.356361 -0.00665851 0)
(-0.353675 -0.00794367 1.13593e-21)
(-0.350613 -0.00917761 1.93584e-21)
(-0.347182 -0.0103602 -7.91751e-22)
(-0.343391 -0.0114913 0)
(-0.339247 -0.0125706 5.09304e-22)
(-0.33476 -0.0135979 0)
(-0.329939 -0.0145731 3.19509e-22)
(-0.324794 -0.0154962 6.57934e-23)
(-0.319336 -0.0163674 6.12636e-23)
(-0.313574 -0.0171867 1.24901e-22)
(-0.307521 -0.0179547 0)
(-0.301186 -0.0186719 -9.91351e-22)
(-0.294581 -0.0193388 0)
(-0.287717 -0.0199563 -2.51507e-21)
(-0.280607 -0.0205252 -1.95836e-21)
(-0.273262 -0.0210464 -2.288e-21)
(-0.265692 -0.0215211 2.62097e-21)
(-0.257911 -0.0219504 -4.5093e-21)
(-0.249929 -0.0223356 0)
(-0.241758 -0.022678 0)
(-0.23341 -0.0229792 3.98264e-21)
(-0.224895 -0.0232407 6.57378e-21)
(-0.216226 -0.0234641 0)
(-0.207412 -0.0236506 -2.59683e-21)
(-0.198464 -0.0238006 0)
(-0.189393 -0.0239157 8.6939e-21)
(-0.18021 -0.0239986 1.69005e-22)
(-0.170924 -0.0240504 -1.70605e-22)
(-0.161545 -0.0240726 -6.8178e-21)
(-0.152083 -0.0240664 0)
(-0.142546 -0.0240333 7.54432e-21)
(-0.132945 -0.0239747 1.75509e-22)
(-0.123288 -0.0238921 0)
(-0.113582 -0.0237869 0)
(-0.103838 -0.0236606 0)
(-0.0940613 -0.0235144 -9.56366e-21)
(-0.084261 -0.0233497 0)
(-0.0744439 -0.0231676 0)
(-0.0646171 -0.0229695 0)
(-0.0547873 -0.0227564 0)
(-0.0449611 -0.0225296 0)
(-0.0351447 -0.0222899 -1.16387e-20)
(-0.0253442 -0.0220384 0)
(-0.0155652 -0.0217761 -1.25787e-20)
(-0.00581326 -0.0215038 -1.29616e-20)
(0.00390605 -0.0212223 1.32847e-20)
(0.0135878 -0.0209325 0)
(0.0232282 -0.0206346 1.37575e-20)
(0.0328234 -0.0203292 0)
(0.0423706 -0.0200165 1.41955e-20)
(0.0518654 -0.0196983 -1.44061e-20)
(0.0613012 -0.0193745 -4.35147e-20)
(0.0706733 -0.019045 0)
(0.0799794 -0.018712 -4.47149e-20)
(0.0892166 -0.0183765 -1.48981e-20)
(0.0983812 -0.0180392 0)
(0.10747 -0.0177006 -3.08434e-20)
(0.11648 -0.0173609 -3.12039e-20)
(0.125408 -0.0170204 4.74707e-20)
(0.134252 -0.0166794 0)
(0.14301 -0.016338 1.62482e-20)
(0.151677 -0.0159965 1.64092e-20)
(0.160253 -0.0156553 4.94513e-20)
(0.168734 -0.0153144 0)
(0.177118 -0.0149743 0)
(0.185405 -0.0146351 0)
(0.19359 -0.014297 1.69374e-20)
(0.201674 -0.0139602 0)
(0.209654 -0.0136248 0)
(0.217529 -0.0132911 -1.75764e-20)
(0.225296 -0.0129592 -1.77091e-20)
(0.232955 -0.0126295 0)
(0.240503 -0.012302 0)
(0.247939 -0.011977 -3.61842e-20)
(0.255263 -0.0116546 0)
(0.262472 -0.0113351 3.66725e-20)
(0.269566 -0.0110186 3.67391e-20)
(0.276543 -0.0107053 0)
(0.283404 -0.0103953 0)
(0.290146 -0.0100888 -3.74445e-20)
(0.29677 -0.00978597 -1.52425e-22)
(0.303274 -0.00948689 -1.47925e-22)
(0.309658 -0.00919177 0)
(0.315921 -0.00890077 -7.68121e-20)
(0.322063 -0.00861403 0)
(0.328085 -0.00833166 0)
(0.333984 -0.00805379 0)
(0.339763 -0.0077805 3.93042e-20)
(0.345421 -0.00751189 0)
(0.350957 -0.00724802 -7.91772e-20)
(0.356373 -0.00698897 -3.99002e-20)
(0.361668 -0.0067348 0)
(0.366843 -0.00648559 -4.02872e-20)
(0.371899 -0.00624136 0)
(0.376836 -0.00600216 0)
(0.381655 -0.00576799 -1.22376e-19)
(0.386356 -0.00553886 8.18993e-20)
(0.39094 -0.00531466 0)
(0.395407 -0.0050953 8.26463e-20)
(0.39976 -0.00488061 -4.159e-20)
(0.403997 -0.00467044 0)
(0.408119 -0.00446448 0)
(0.412127 -0.00426233 0)
(0.416021 -0.00406347 -1.26787e-19)
(0.4198 -0.0038672 0)
(0.423464 -0.00367261 -4.26677e-20)
(0.42701 -0.00347842 0)
(0.430436 -0.00328286 0)
(0.433737 -0.00308354 0)
(0.436908 -0.00287716 0)
(0.439939 -0.00265906 0)
(0.442818 -0.00242228 0)
(0.445526 -0.00215674 -8.78899e-20)
(0.448045 -0.0018482 0)
(0.450346 -0.00147623 -4.4471e-20)
(0.452381 -0.00101086 1.34122e-19)
(0.45408 -0.000401212 0)
(0.455315 0.000437071 0)
(0.456018 0.00167988 -9.12032e-20)
(0.455716 0.00358709 -9.22111e-20)
(0.455253 0.00686345 9.31196e-20)
(0.451356 0.0125555 9.57402e-20)
(-0.0009115 -0.0124504 -5.23304e-20)
(-0.00597381 -0.00564006 -3.25875e-20)
(-0.0122132 0.00531144 -1.20612e-20)
(-0.0191892 0.0153399 -4.22455e-21)
(-0.0268074 0.0243531 0)
(-0.0348487 0.0324196 6.17566e-21)
(-0.0432835 0.0395934 -2.81107e-21)
(-0.0521443 0.0459273 0)
(-0.0614496 0.0514938 -2.52674e-21)
(-0.0711845 0.0563835 0)
(-0.0813007 0.0606869 4.60014e-21)
(-0.0917237 0.0644743 0)
(-0.102363 0.0677867 2.12856e-21)
(-0.113126 0.0706378 4.09717e-21)
(-0.123922 0.0730234 -3.94866e-21)
(-0.134674 0.0749318 0)
(-0.145317 0.0763517 -3.68447e-21)
(-0.155798 0.0772792 0)
(-0.166077 0.0777205 0)