/*--------------------------------*- C++ -*----------------------------------*\
  =========                 |
  \\      /  F ield         | OpenFOAM: The Open Source CFD Toolbox
   \\    /   O peration     | Website:  https://openfoam.org
    \\  /    A nd           | Version:  7
     \\/     M anipulation  |
\*---------------------------------------------------------------------------*/
FoamFile
{
    version     2.0;
    format      ascii;
    class       volScalarField;
    location    "0.015";
    object      T;
}
// * * * * * * * * * * * * * * * * * * * * * * * * * * * * * * * * * * * * * //

dimensions      [0 0 0 1 0 0 0];

internalField   nonuniform List<scalar> 
12225
(
1.00689
1.0041
1.00171
1.00089
1.00043
1.00012
0.999963
0.999896
0.999861
0.999832
0.999797
0.999716
0.999517
0.999009
0.997729
0.994597
0.986602
0.966676
0.995136
0.994812
0.996745
0.998334
0.999127
0.999464
0.999644
0.999762
0.999834
0.999868
0.999866
0.999811
0.999629
0.999146
0.997919
0.994939
0.987609
0.970197
0.999619
1.00005
1.00023
1.00028
1.0002
1.00008
0.999991
0.999951
0.999929
0.999906
0.99987
0.999794
0.999606
0.999141
0.997993
0.995264
0.988859
0.974896
1.00032
1.00017
0.999777
0.999749
0.999819
0.999835
0.999837
0.999849
0.999861
0.999861
0.999842
0.999781
0.999614
0.999192
0.998159
0.995759
0.990409
0.979585
1.00014
0.999947
0.999658
0.999701
0.999818
0.999857
0.999862
0.99987
0.999878
0.999877
0.999858
0.9998
0.999646
0.999265
0.998356
0.996314
0.991988
0.983788
1.00002
0.999951
0.999769
0.999773
0.999847
0.999872
0.999872
0.999876
0.999881
0.999879
0.999862
0.99981
0.999672
0.999337
0.998562
0.996878
0.993479
0.987372
0.999995
1
0.999864
0.999822
0.999858
0.999877
0.999878
0.999881
0.999885
0.999884
0.999869
0.999822
0.999702
0.999417
0.998774
0.997426
0.99482
0.990334
0.999995
1.00002
0.999917
0.999858
0.999872
0.999888
0.999889
0.99989
0.999893
0.999891
0.999878
0.999837
0.999735
0.999498
0.99898
0.99793
0.995977
0.992725
0.999995
1.00002
0.999951
0.999894
0.999893
0.999902
0.999902
0.999902
0.999903
0.9999
0.999888
0.999853
0.999768
0.999577
0.999172
0.998376
0.996942
0.994618
0.999995
1.00002
0.999976
0.999926
0.999916
0.999918
0.999916
0.999914
0.999914
0.999911
0.999899
0.99987
0.999801
0.999652
0.999343
0.998755
0.997725
0.996089
0.999996
1.00002
0.999992
0.999953
0.999938
0.999934
0.999931
0.999927
0.999925
0.999922
0.999912
0.999887
0.999834
0.99972
0.99949
0.999067
0.998342
0.997211
0.999997
1.00001
1
0.999971
0.999954
0.999948
0.999944
0.99994
0.999936
0.999932
0.999923
0.999904
0.999862
0.999774
0.999604
0.999295
0.998778
0.99798
0.999997
1.00001
1.00001
0.999984
0.999968
0.999962
0.999957
0.999952
0.999947
0.999942
0.999936
0.99992
0.999886
0.999821
0.999698
0.999478
0.999117
0.998565
0.999997
1.00001
1.00001
0.999993
0.999981
0.999974
0.999968
0.999964
0.999959
0.999954
0.999949
0.999937
0.999912
0.999866
0.999784
0.999638
0.999403
0.999049
0.999998
1.00001
1.00001
1
0.999991
0.999985
0.999981
0.999977
0.999972
0.999966
0.999961
0.999953
0.999937
0.999908
0.999855
0.999767
0.999627
0.999419
0.999998
1.00001
1.00001
1
0.999998
0.999994
0.999991
0.999988
0.999983
0.999978
0.999974
0.999968
0.999959
0.999941
0.99991
0.999861
0.999786
0.999675
0.999998
1.00001
1.00001
1.00001
1
0.999999
0.999998
0.999996
0.999992
0.999989
0.999984
0.999979
0.999974
0.999966
0.99995
0.999925
0.999889
0.999837
0.999999
1.00001
1.00001
1.00001
1
1
1
0.999998
0.999995
0.999993
0.999992
0.99999
0.999985
0.999979
0.999973
0.999963
0.999948
0.999926
1
1.00001
1.00001
1.00001
1
1
1
0.999999
0.999998
0.999996
0.999994
0.999992
0.999989
0.999986
0.999984
0.999979
0.999973
0.999964
0.999999
1.00001
1.00001
1.00001
1.00001
1
0.999998
0.999996
0.999993
0.999991
0.999989
0.999987
0.999984
0.999982
0.99998
0.999977
0.999973
0.999969
0.999997
1.00001
1.00001
1.00001
1
0.999998
0.999993
0.999988
0.999985
0.999982
0.999979
0.999976
0.999973
0.999972
0.99997
0.999968
0.999966
0.999964
0.999997
1.00001
1.00002
1.00001
0.999995
0.999988
0.999982
0.999975
0.999969
0.999965
0.999964
0.999963
0.99996
0.999959
0.999958
0.999957
0.999956
0.999954
0.999996
1.00003
1.00003
0.999996
0.999972
0.999966
0.999961
0.999956
0.999952
0.999949
0.999948
0.999947
0.999946
0.999945
0.999945
0.999944
0.999944
0.999944
0.999989
1.00005
1.00004
0.999983
0.999948
0.999938
0.999932
0.999929
0.999929
0.999931
0.999932
0.999933
0.999932
0.999933
0.999934
0.999934
0.999935
0.999935
0.99999
1.00004
0.999992
0.999937
0.999931
0.999929
0.999917
0.999909
0.999908
0.99991
0.999912
0.999915
0.999917
0.999918
0.999919
0.999921
0.999923
0.999925
1.00013
1.00009
0.999825
0.999756
0.999837
0.999896
0.999909
0.999912
0.999916
0.999918
0.99992
0.999921
0.999922
0.999922
0.999923
0.999924
0.999925
0.999925
1.0005
1.00053
0.999952
0.999665
0.999667
0.999718
0.999754
0.999789
0.99982
0.999844
0.999861
0.999875
0.999885
0.999893
0.9999
0.999905
0.999909
0.999914
1.00004
1.0008
1.00096
1.0008
1.00056
1.00034
1.00018
1.00009
1.00003
0.999996
0.99997
0.999954
0.999943
0.999935
0.99993
0.999925
0.999921
0.999921
0.994604
0.993791
0.995838
0.997661
0.998662
0.999144
0.999416
0.999594
0.99971
0.999782
0.999829
0.999863
0.999887
0.999905
0.999918
0.999928
0.999933
0.99993
1.00635
1.00419
1.00178
1.00096
1.00054
1.00023
1.00005
0.999977
0.999939
0.999915
0.9999
0.999891
0.999888
0.999886
0.999885
0.999886
0.999888
0.999899
0.0928988
0.0928339
0.0926999
0.0924997
0.092235
0.0919058
0.0915126
0.0910571
0.090541
0.0899663
0.089335
0.0886492
0.0879112
0.0871237
0.0862892
0.0854107
0.0844911
0.0835336
0.0825413
0.0815175
0.0804656
0.0793886
0.0782901
0.0771731
0.0760409
0.0748965
0.0737427
0.0725821
0.0714173
0.0702508
0.0690859
0.0679274
0.0667836
0.0656677
0.0645588
0.0634418
0.0623347
0.0612345
0.0601439
0.0590644
0.0579946
0.0569417
0.0559087
0.0548863
0.0538791
0.0528903
0.0519148
0.0509533
0.0500056
0.0490712
0.0481499
0.0472412
0.0463449
0.0454607
0.0445882
0.0437272
0.0428773
0.0420383
0.0412097
0.0403915
0.0395831
0.0387843
0.0379949
0.0372145
0.0364428
0.0356795
0.0349243
0.0341769
0.033437
0.0327042
0.0319784
0.0312592
0.0305464
0.0298396
0.0291387
0.0284433
0.0277533
0.0270685
0.0263886
0.0257136
0.0250433
0.0243775
0.0237162
0.0230593
0.0224069
0.0217588
0.0211152
0.020476
0.0198415
0.0192116
0.0185866
0.0179667
0.017352
0.0167428
0.0161394
0.015542
0.014951
0.0143666
0.0137894
0.0132197
0.0126578
0.0121044
0.0115597
0.0110242
0.0104984
0.0099828
0.00947781
0.00898393
0.00850161
0.00803131
0.00757346
0.0071285
0.00669682
0.00627881
0.00587481
0.00548514
0.00511008
0.00474986
0.00440469
0.00407471
0.00376002
0.00346069
0.00317669
0.00290798
0.00265446
0.00241596
0.00219226
0.00198311
0.00178818
0.00160711
0.00143948
0.00128486
0.00114273
0.00101259
0.000893879
0.000786021
0.00068842
0.000600472
0.00052156
0.000451069
0.000388383
0.000332897
0.000284016
0.000241164
0.000203784
0.000171342
0.000143335
0.000119284
9.87425e-05
8.12967e-05
6.65639e-05
5.41945e-05
4.38705e-05
3.53057e-05
2.82439e-05
2.24576e-05
1.77468e-05
1.39363e-05
1.08743e-05
8.43019e-06
6.4925e-06
4.96705e-06
3.77429e-06
2.84814e-06
2.13448e-06
1.58845e-06
1.17372e-06
8.61044e-07
6.27073e-07
4.53321e-07
3.25276e-07
2.31641e-07
1.63703e-07
1.14795e-07
7.98659e-08
5.51175e-08
3.77247e-08
2.55987e-08
1.72339e-08
1.15332e-08
0.0949877
0.0949182
0.0947794
0.0945716
0.0942968
0.093956
0.0935503
0.0930811
0.09255
0.091959
0.0913103
0.0906065
0.0898502
0.0890444
0.0881917
0.0872952
0.0863581
0.0853834
0.0843744
0.0833345
0.082267
0.0811753
0.0800628
0.0789331
0.0777894
0.0766351
0.0754735
0.0743078
0.0731407
0.0719749
0.0708118
0.0696519
0.0684954
0.067328
0.0661593
0.0650143
0.0638868
0.0627766
0.0616828
0.0606036
0.0595407
0.0584911
0.0574512
0.0564278
0.0554208
0.0544255
0.0534436
0.0524752
0.0515203
0.0505787
0.04965
0.0487339
0.0478301
0.0469383
0.0460581
0.0451892
0.0443314
0.0434842
0.0426475
0.0418208
0.0410039
0.0401966
0.0393984
0.038609
0.0378282
0.0370557
0.0362911
0.0355341
0.0347844
0.0340417
0.0333056
0.032576
0.0318524
0.0311347
0.0304225
0.0297156
0.0290137
0.0283167
0.0276243
0.0269364
0.0262527
0.0255732
0.0248977
0.0242263
0.0235588
0.0228951
0.0222355
0.0215798
0.0209282
0.0202808
0.0196377
0.0189991
0.0183652
0.0177362
0.0171125
0.0164943
0.015882
0.0152759
0.0146764
0.0140838
0.0134986
0.0129213
0.0123524
0.0117924
0.0112417
0.0107009
0.0101704
0.00965087
0.00914273
0.0086465
0.00816267
0.00769172
0.00723412
0.00679031
0.0063607
0.00594566
0.00554554
0.00516063
0.00479121
0.00443747
0.00409958
0.00377765
0.00347172
0.00318179
0.0029078
0.00264963
0.00240709
0.00217996
0.00196795
0.00177069
0.00158781
0.00141884
0.00126329
0.00112065
0.000990339
0.000871769
0.000764322
0.000667364
0.000580248
0.000502321
0.000432932
0.000371432
0.000317185
0.00026957
0.000227985
0.000191853
0.000160623
0.000133777
0.000110824
9.13101e-05
7.4815e-05
6.0953e-05
4.9373e-05
3.9758e-05
3.1824e-05
2.53179e-05
2.00174e-05
1.57268e-05
1.22769e-05
9.52151e-06
7.33572e-06
5.61418e-06
4.26754e-06
3.22157e-06
2.41512e-06
1.7978e-06
1.32873e-06
9.74965e-07
7.10162e-07
5.1346e-07
3.68468e-07
2.62421e-07
1.85464e-07
1.30058e-07
9.04838e-08
6.24433e-08
4.27364e-08
2.89978e-08
1.95152e-08
1.30427e-08
0.0991686
0.0990831
0.0989273
0.0987
0.0984019
0.0980343
0.0975993
0.0970989
0.0965355
0.0959115
0.0952293
0.0944916
0.0937012
0.092861
0.0919741
0.0910435
0.0900726
0.0890645
0.0880228
0.0869508
0.085852
0.0847299
0.0835878
0.0824291
0.0812572
0.0800751
0.0788858
0.077692
0.076496
0.0753002
0.0741068
0.0729185
0.0717379
0.070565
0.0694009
0.068249
0.0671096
0.0659843
0.0648741
0.0637793
0.0627005
0.0616376
0.0605894
0.0595551
0.058534
0.0575258
0.0565309
0.0555492
0.0545807
0.0536249
0.0526818
0.0517509
0.050832
0.0499248
0.049029
0.0481442
0.0472702
0.0464066
0.0455532
0.0447097
0.0438756
0.0430508
0.0422349
0.0414276
0.0406285
0.0398374
0.0390538
0.0382776
0.0375082
0.0367455
0.035989
0.0352384
0.0344935
0.0337538
0.0330192
0.0322892
0.0315637
0.0308423
0.0301249
0.0294111
0.0287009
0.027994
0.0272904
0.0265898
0.0258923
0.0251978
0.0245062
0.0238175
0.023132
0.0224495
0.0217703
0.0210945
0.0204223
0.019754
0.0190898
0.01843
0.0177749
0.017125
0.0164807
0.0158424
0.0152105
0.0145857
0.0139684
0.0133591
0.0127585
0.0121671
0.0115855
0.0110144
0.0104542
0.00990576
0.0093695
0.00884608
0.00833608
0.00784005
0.00735853
0.00689203
0.00644102
0.00600593
0.00558714
0.005185
0.00479979
0.00443171
0.00408095
0.00374759
0.00343168
0.00313317
0.00285197
0.00258791
0.00234074
0.00211016
0.00189581
0.00169725
0.00151399
0.0013455
0.00119119
0.00105043
0.000922572
0.000806918
0.000702761
0.00060938
0.000526044
0.000452022
0.000386593
0.000329044
0.000278684
0.000234843
0.00019688
0.000164186
0.000136186
0.000112341
9.21523e-05
7.51605e-05
6.0945e-05
4.91254e-05
3.93592e-05
3.13405e-05
2.48e-05
1.94995e-05
1.52333e-05
1.18227e-05
9.11481e-06
6.97985e-06
5.30845e-06
4.00933e-06
3.00693e-06
2.23915e-06
1.65543e-06
1.21499e-06
8.85169e-07
6.40089e-07
4.59385e-07
3.27189e-07
2.3124e-07
1.62152e-07
1.12803e-07
7.78364e-08
5.32629e-08
3.61335e-08
2.43065e-08
1.62204e-08
0.10549
0.105383
0.105202
0.104946
0.104614
0.104209
0.103733
0.103189
0.10258
0.101909
0.101179
0.100392
0.0995528
0.0986631
0.0977268
0.0967471
0.0957274
0.0946714
0.0935824
0.0924642
0.0913203
0.0901542
0.0889694
0.0877695
0.0865575
0.0853369
0.0841104
0.082881
0.0816514
0.0804241
0.0792018
0.0779867
0.0767806
0.0755842
0.0743987
0.0732258
0.072066
0.0709201
0.0697885
0.0686717
0.0675698
0.0664829
0.0654106
0.0643527
0.0633088
0.0622784
0.0612614
0.0602574
0.0592663
0.0582877
0.0573213
0.0563669
0.0554241
0.0544927
0.0535723
0.0526627
0.0517635
0.0508744
0.0499952
0.0491255
0.048265
0.0474133
0.0465703
0.0457354
0.0449084
0.0440889
0.0432765
0.042471
0.0416718
0.0408787
0.0400912
0.0393091
0.0385318
0.0377592
0.0369907
0.036226
0.0354649
0.034707
0.033952
0.0331997
0.0324497
0.0317019
0.030956
0.0302119
0.0294695
0.0287286
0.0279892
0.0272513
0.0265149
0.02578
0.0250468
0.0243153
0.0235858
0.0228584
0.0221335
0.0214113
0.0206923
0.0199767
0.0192651
0.018558
0.0178559
0.0171593
0.0164689
0.0157853
0.0151092
0.0144412
0.0137821
0.0131325
0.0124934
0.0118653
0.0112491
0.0106456
0.0100554
0.00947945
0.00891834
0.00837282
0.00784354
0.00733115
0.00683623
0.00635931
0.00590086
0.00546129
0.00504094
0.00464008
0.0042589
0.0038975
0.00355591
0.00323408
0.00293185
0.002649
0.00238521
0.00214009
0.00191315
0.00170387
0.00151164
0.00133577
0.00117556
0.00103024
0.000898999
0.000781025
0.000675467
0.00058147
0.000498178
0.000424743
0.000360332
0.000304134
0.000255365
0.000213277
0.000177159
0.000146342
0.000120202
9.8162e-05
7.9692e-05
6.43101e-05
5.15815e-05
4.11144e-05
3.2566e-05
2.56298e-05
2.00398e-05
1.55655e-05
1.20091e-05
9.20231e-06
7.00289e-06
5.2919e-06
3.97067e-06
2.95798e-06
2.1876e-06
1.606e-06
1.1703e-06
8.46406e-07
6.07521e-07
4.32718e-07
3.05822e-07
2.14441e-07
1.49164e-07
1.02913e-07
7.04108e-08
4.77584e-08
3.21161e-08
2.14108e-08
0.113985
0.113854
0.113643
0.113353
0.112981
0.11253
0.112005
0.111408
0.110742
0.110013
0.109222
0.108374
0.107472
0.106519
0.10552
0.104477
0.103395
0.102278
0.101128
0.0999511
0.0987495
0.0975272
0.0962881
0.0950356
0.093773
0.0925038
0.0912309
0.0899573
0.0886857
0.0874187
0.0861585
0.0849072
0.0836661
0.0824362
0.0812186
0.0800143
0.078824
0.0776481
0.0764867
0.0753401
0.0742084
0.0730913
0.0719887
0.0709003
0.0698257
0.0687647
0.0677168
0.0666818
0.0656593
0.0646491
0.0636507
0.062664
0.0616885
0.0607241
0.0597703
0.0588269
0.0578937
0.0569701
0.0560561
0.0551512
0.0542551
0.0533675
0.052488
0.0516162
0.0507519
0.0498945
0.0490438
0.0481992
0.0473604
0.0465269
0.0456983
0.0448742
0.0440541
0.0432377
0.0424244
0.0416138
0.0408056
0.0399994
0.0391947
0.0383913
0.0375887
0.0367867
0.035985
0.0351834
0.0343816
0.0335794
0.0327768
0.0319737
0.0311699
0.0303655
0.0295606
0.0287552
0.0279495
0.0271436
0.0263379
0.0255327
0.0247283
0.0239251
0.0231237
0.0223245
0.0215281
0.0207353
0.0199467
0.0191629
0.0183849
0.0176135
0.0168494
0.0160937
0.0153471
0.0146108
0.0138857
0.0131728
0.012473
0.0117874
0.011117
0.0104627
0.00982556
0.00920638
0.00860605
0.00802539
0.00746515
0.006926
0.00640852
0.00591325
0.00544059
0.00499086
0.00456429
0.004161
0.00378097
0.0034241
0.00309017
0.00277885
0.00248971
0.00222221
0.00197574
0.00174958
0.00154293
0.00135494
0.00118469
0.00103123
0.000893549
0.000770626
0.000661425
0.000564911
0.000480057
0.000405851
0.000341311
0.000285493
0.000237495
0.000196459
0.000161585
0.000132129
0.0001074
8.67719e-05
6.9676e-05
5.55979e-05
4.40824e-05
3.4726e-05
2.71758e-05
2.11253e-05
1.63108e-05
1.2507e-05
9.52356e-06
7.20066e-06
5.40547e-06
4.02853e-06
2.9804e-06
2.18868e-06
1.59527e-06
1.15398e-06
8.28394e-07
5.90083e-07
4.1705e-07
2.92426e-07
2.03398e-07
1.40317e-07
9.59916e-08
6.5103e-08
4.37739e-08
2.91695e-08
0.124741
0.124582
0.124338
0.124009
0.123592
0.123089
0.122506
0.121847
0.121117
0.120318
0.119457
0.118536
0.11756
0.116532
0.115458
0.114341
0.113185
0.111994
0.110773
0.109525
0.108255
0.106965
0.105661
0.104346
0.103024
0.101696
0.100368
0.0990411
0.0977186
0.0964027
0.0950955
0.0937987
0.0925135
0.0912409
0.0899818
0.0887369
0.0875065
0.0862911
0.0850907
0.0839053
0.0827348
0.081579
0.0804376
0.0793103
0.0781966
0.0770962
0.0760088
0.0749339
0.0738712
0.0728205
0.0717813
0.0707534
0.0697365
0.0687302
0.0677342
0.0667482
0.065772
0.0648051
0.0638474
0.0628983
0.0619577
0.0610251
0.0601001
0.0591824
0.0582715
0.057367
0.0564685
0.0555754
0.0546874
0.0538039
0.0529243
0.0520483
0.0511752
0.0503046
0.0494359
0.0485686
0.0477023
0.0468364
0.0459704
0.0451038
0.0442363
0.0433675
0.0424969
0.0416241
0.040749
0.0398711
0.0389903
0.0381064
0.0372193
0.0363288
0.035435
0.0345378
0.0336374
0.032734
0.0318277
0.0309188
0.0300078
0.029095
0.0281809
0.0272662
0.0263514
0.0254373
0.0245247
0.0236144
0.0227074
0.0218046
0.020907
0.0200159
0.0191322
0.0182573
0.0173924
0.0165388
0.0156977
0.0148704
0.0140584
0.013263
0.0124853
0.0117268
0.0109885
0.0102718
0.00957776
0.00890733
0.00826152
0.00764117
0.00704701
0.00647969
0.00593969
0.00542739
0.00494299
0.00448659
0.00405811
0.00365735
0.00328395
0.00293742
0.00261715
0.00232238
0.00205226
0.00180582
0.00158201
0.00137972
0.00119774
0.00103486
0.000889789
0.000761263
0.000647998
0.000548721
0.000462185
0.000387185
0.00032256
0.000267201
0.000220065
0.000180182
0.000146643
0.000118619
9.53558e-05
7.61703e-05
6.04541e-05
4.76675e-05
3.7336e-05
2.90469e-05
2.24438e-05
1.72215e-05
1.31216e-05
9.9267e-06
7.45562e-06
5.5589e-06
4.11418e-06
3.02226e-06
2.20344e-06
1.59426e-06
1.14463e-06
8.15438e-07
5.76359e-07
4.04138e-07
2.81095e-07
1.9391e-07
1.32649e-07
8.99629e-08
6.04894e-08
4.03035e-08
0.137866
0.137678
0.137398
0.137026
0.136558
0.135998
0.135351
0.134624
0.13382
0.132945
0.132003
0.131
0.129941
0.128829
0.127669
0.126467
0.125227
0.123952
0.122649
0.12132
0.119971
0.118606
0.117227
0.11584
0.114448
0.113054
0.111661
0.110272
0.108889
0.107515
0.106151
0.1048
0.103461
0.102136
0.100826
0.0995312
0.0982515
0.0969872
0.0957383
0.0945047
0.0932862
0.0920824
0.090893
0.0897176
0.0885558
0.0874071
0.0862711
0.0851474
0.0840358
0.0829357
0.0818469
0.0807691
0.0797019
0.078645
0.077598
0.0765608
0.0755329
0.074514
0.0735038
0.0725019
0.071508
0.0705217
0.0695424
0.0685699
0.0676036
0.0666431
0.0656878
0.0647372
0.0637908
0.0628479
0.0619079
0.0609704
0.0600346
0.0590999
0.0581658
0.0572315
0.0562964
0.05536
0.0544215
0.0534805
0.0525364
0.0515885
0.0506365
0.0496798
0.0487179
0.0477505
0.0467772
0.0457977
0.0448117
0.0438191
0.0428197
0.0418135
0.0408005
0.0397807
0.0387543
0.0377217
0.036683
0.0356387
0.0345893
0.0335354
0.0324778
0.0314171
0.0303543
0.0292904
0.0282263
0.0271632
0.0261024
0.0250453
0.0239931
0.0229475
0.0219098
0.0208819
0.0198653
0.0188616
0.0178728
0.0169005
0.0159464
0.0150123
0.0140999
0.0132108
0.0123467
0.011509
0.0106992
0.00991852
0.00916822
0.00844931
0.00776267
0.00710904
0.00648896
0.00590279
0.00535071
0.00483268
0.00434852
0.00389782
0.00348001
0.00309433
0.00273989
0.0024156
0.00212029
0.00185264
0.00161125
0.00139463
0.00120122
0.00102946
0.000877743
0.000744463
0.000628029
0.000526908
0.000439602
0.00036467
0.000300749
0.000246562
0.000200916
0.000162713
0.000130948
0.000104713
8.31905e-05
6.56565e-05
5.14714e-05
4.0077e-05
3.09899e-05
2.37958e-05
1.81425e-05
1.3733e-05
1.03199e-05
7.69809e-06
5.69976e-06
4.18852e-06
3.05466e-06
2.21069e-06
1.58753e-06
1.13113e-06
7.99576e-07
5.60693e-07
3.89998e-07
2.69039e-07
1.84046e-07
1.24826e-07
8.39385e-08
5.5931e-08
0.1535
0.15328
0.152961
0.152541
0.152017
0.151395
0.15068
0.149877
0.148994
0.148035
0.147006
0.145913
0.144761
0.143556
0.142303
0.141007
0.139673
0.138306
0.136911
0.135493
0.134056
0.132605
0.131144
0.129676
0.128205
0.126734
0.125268
0.123807
0.122355
0.120913
0.119484
0.118068
0.116666
0.11528
0.113909
0.112554
0.111215
0.109892
0.108585
0.107294
0.106018
0.104757
0.10351
0.102278
0.101059
0.0998525
0.098659
0.0974777
0.0963081
0.09515
0.0940029
0.0928664
0.0917403
0.0906242
0.0895178
0.0884207
0.0873326
0.0862533
0.0851822
0.084119
0.0830633
0.0820147
0.0809727
0.0799369
0.0789066
0.0778814
0.0768607
0.0758438
0.0748301
0.0738189
0.0728096
0.0718014
0.0707936
0.0697854
0.0687761
0.067765
0.0667512
0.0657339
0.0647125
0.0636862
0.0626543
0.061616
0.0605707
0.0595177
0.0584565
0.0573864
0.0563069
0.0552177
0.0541182
0.0530081
0.0518872
0.0507553
0.0496123
0.0484581
0.0472928
0.0461165
0.0449295
0.0437322
0.042525
0.0413086
0.0400836
0.0388509
0.0376114
0.0363662
0.0351164
0.0338634
0.0326086
0.0313535
0.0300999
0.0288495
0.0276043
0.0263661
0.0251372
0.0239196
0.0227155
0.0215272
0.0203571
0.0192073
0.0180802
0.0169781
0.015903
0.0148572
0.0138426
0.0128612
0.0119147
0.0110047
0.0101326
0.00929975
0.00850703
0.00775523
0.00704489
0.00637629
0.00574945
0.00516418
0.00462
0.00411623
0.00365191
0.00322592
0.00283692
0.00248343
0.00216379
0.00187623
0.00161885
0.00138972
0.00118687
0.00100827
0.000851912
0.000715828
0.000598091
0.000496843
0.000410311
0.000336822
0.000274808
0.000222819
0.000179523
0.00014371
0.000114289
9.02865e-05
7.08439e-05
5.52073e-05
4.27231e-05
3.28292e-05
2.50465e-05
1.89707e-05
1.42638e-05
1.06454e-05
7.88551e-06
5.79702e-06
4.22916e-06
3.06157e-06
2.19909e-06
1.56717e-06
1.10797e-06
7.7704e-07
5.40525e-07
3.72905e-07
2.55117e-07
1.73046e-07
1.1638e-07
7.75593e-08
0.171808
0.171553
0.17119
0.170718
0.170135
0.169445
0.168656
0.167773
0.166804
0.165755
0.164632
0.163442
0.162191
0.160885
0.15953
0.158132
0.156696
0.155229
0.153734
0.152218
0.150684
0.149139
0.147585
0.146027
0.144469
0.142914
0.141364
0.139822
0.138291
0.136772
0.135267
0.133777
0.132303
0.130845
0.129404
0.127979
0.126571
0.12518
0.123806
0.122447
0.121104
0.119776
0.118463
0.117164
0.115879
0.114606
0.113346
0.112098
0.110862
0.109637
0.108423
0.107219
0.106026
0.104842
0.103668
0.102503
0.101346
0.100198
0.0990575
0.0979247
0.096799
0.0956799
0.0945668
0.0934593
0.0923568
0.0912585
0.0901639
0.0890723
0.0879828
0.0868947
0.0858073
0.0847196
0.0836308
0.0825401
0.0814464
0.080349
0.0792469
0.078139
0.0770247
0.0759028
0.0747725
0.0736329
0.0724831
0.0713224
0.0701498
0.0689646
0.0677662
0.0665538
0.0653269
0.0640849
0.0628273
0.0615539
0.0602643
0.0589583
0.0576359
0.056297
0.0549418
0.0535706
0.0521836
0.0507816
0.0493652
0.0479351
0.0464924
0.0450382
0.0435737
0.0421005
0.0406201
0.0391343
0.0376451
0.0361545
0.0346649
0.0331786
0.0316981
0.0302261
0.0287654
0.0273188
0.0258892
0.0244796
0.023093
0.0217323
0.0204004
0.0191003
0.0178348
0.0166064
0.0154177
0.014271
0.0131686
0.0121121
0.0111034
0.0101436
0.00923396
0.00837506
0.00756735
0.00681092
0.00610553
0.00545061
0.00484528
0.00428836
0.00377838
0.00331375
0.00289253
0.00251261
0.00217174
0.00186755
0.00159761
0.0013594
0.0011504
0.000968116
0.000810077
0.000673902
0.000557297
0.000458085
0.000374218
0.00030379
0.000245043
0.000196375
0.000156335
0.000123624
9.70929e-05
7.57289e-05
5.86521e-05
4.51036e-05
3.44354e-05
2.60991e-05
1.96352e-05
1.46621e-05
1.08661e-05
7.9917e-06
5.83249e-06
4.22365e-06
3.03465e-06
2.16314e-06
1.52961e-06
1.07291e-06
7.46434e-07
5.15018e-07
3.52381e-07
2.39053e-07
1.608e-07
1.07183e-07
0.19298
0.192687
0.192276
0.191748
0.1911
0.190337
0.189468
0.1885
0.187439
0.186293
0.18507
0.183776
0.182418
0.181004
0.179539
0.178031
0.176486
0.174909
0.173306
0.171683
0.170045
0.168396
0.166742
0.165085
0.16343
0.16178
0.160138
0.158506
0.156886
0.155281
0.153691
0.152117
0.15056
0.14902
0.147499
0.145995
0.144508
0.14304
0.141588
0.140152
0.138733
0.137329
0.13594
0.134565
0.133204
0.131856
0.130521
0.129197
0.127886
0.126585
0.125296
0.124016
0.122747
0.121487
0.120237
0.118995
0.117762
0.116536
0.115319
0.114108
0.112904
0.111706
0.110514
0.109327
0.108143
0.106964
0.105787
0.104612
0.103439
0.102265
0.101091
0.0999151
0.0987366
0.0975544
0.0963674
0.0951746
0.0939749
0.092767
0.09155
0.0903227
0.089084
0.0878328
0.0865679
0.0852885
0.0839933
0.0826814
0.0813519
0.0800038
0.0786364
0.0772489
0.0758406
0.0744108
0.0729591
0.0714851
0.0699884
0.0684689
0.0669265
0.0653613
0.0637736
0.0621638
0.0605325
0.0588804
0.0572085
0.0555179
0.05381
0.0520863
0.0503485
0.0485987
0.046839
0.0450718
0.0432997
0.0415256
0.0397525
0.0379835
0.036222
0.0344715
0.0327357
0.0310182
0.029323
0.0276537
0.0260142
0.0244084
0.0228399
0.0213124
0.0198293
0.0183938
0.0170091
0.0156779
0.0144027
0.0131856
0.0120283
0.0109322
0.00989823
0.00892701
0.00801865
0.00717281
0.00638879
0.00566545
0.00500129
0.00439453
0.003843
0.00334427
0.00289569
0.00249441
0.00213746
0.00182174
0.00154412
0.00130146
0.00109064
0.000908616
0.00075245
0.00061933
0.000506597
0.000411766
0.000332533
0.000266791
0.000212622
0.000168307
0.000132314
0.000103294
8.00699e-05
6.16233e-05
4.70828e-05
3.57094e-05
2.68824e-05
2.00855e-05
1.48933e-05
1.09588e-05
8.00129e-06
5.79636e-06
4.16598e-06
2.97039e-06
2.10094e-06
1.47395e-06
1.02562e-06
7.07758e-07
4.84331e-07
3.28622e-07
2.21094e-07
1.47403e-07
0.217231
0.216896
0.216432
0.215841
0.215122
0.214281
0.213326
0.212264
0.211105
0.209856
0.208524
0.207119
0.205647
0.204116
0.202534
0.200908
0.199244
0.197549
0.19583
0.194091
0.192339
0.190578
0.188813
0.187049
0.185288
0.183533
0.181789
0.180057
0.178339
0.176637
0.174951
0.173283
0.171634
0.170003
0.168392
0.166798
0.165224
0.163667
0.162128
0.160606
0.159101
0.157611
0.156137
0.154677
0.153232
0.151799
0.15038
0.148972
0.147577
0.146192
0.144818
0.143455
0.142101
0.140757
0.139422
0.138095
0.136777
0.135466
0.134162
0.132866
0.131575
0.13029
0.129011
0.127735
0.126463
0.125193
0.123926
0.122659
0.121393
0.120125
0.118856
0.117583
0.116306
0.115023
0.113734
0.112437
0.11113
0.109813
0.108484
0.107142
0.105785
0.104412
0.103022
0.101613
0.100185
0.0987352
0.0972633
0.0957679
0.094248
0.0927023
0.09113
0.0895303
0.0879022
0.086245
0.0845582
0.0828414
0.0810941
0.0793164
0.0775082
0.0756698
0.0738015
0.071904
0.0699781
0.0680248
0.0660455
0.0640418
0.0620154
0.0599685
0.0579035
0.055823
0.0537299
0.0516275
0.0495193
0.047409
0.0453006
0.0431984
0.0411066
0.03903
0.0369733
0.0349412
0.0329386
0.0309705
0.0290417
0.0271569
0.0253208
0.0235377
0.0218121
0.0201477
0.0185481
0.0170164
0.0155555
0.0141675
0.0128542
0.0116167
0.0104559
0.0093718
0.008364
0.00743156
0.00657306
0.00578658
0.00506978
0.00441992
0.00383392
0.00330841
0.00283983
0.00242441
0.00205829
0.00173756
0.00145832
0.00121674
0.00100906
0.000831689
0.000681207
0.000554398
0.000448269
0.000360066
0.00028728
0.000227646
0.000179144
0.000139986
0.00010861
8.36587e-05
6.39692e-05
4.85523e-05
3.65755e-05
2.73448e-05
2.02877e-05
1.49357e-05
1.09101e-05
7.90687e-06
5.68494e-06
4.05474e-06
2.8687e-06
2.01307e-06
1.40106e-06
9.6703e-07
6.61881e-07
4.49181e-07
3.02272e-07
2.01569e-07
0.244798
0.244415
0.243891
0.243231
0.242434
0.241506
0.240456
0.239294
0.238027
0.236665
0.235216
0.233689
0.232093
0.230437
0.228727
0.226973
0.225181
0.223358
0.221512
0.219648
0.217772
0.21589
0.214005
0.212122
0.210245
0.208377
0.20652
0.204678
0.202851
0.201042
0.199251
0.19748
0.195728
0.193996
0.192284
0.190592
0.188919
0.187265
0.185629
0.184011
0.18241
0.180826
0.179257
0.177703
0.176164
0.174638
0.173125
0.171624
0.170135
0.168658
0.167191
0.165735
0.164288
0.16285
0.161422
0.160002
0.15859
0.157185
0.155787
0.154395
0.15301
0.151629
0.150252
0.14888
0.14751
0.146141
0.144774
0.143407
0.142039
0.140668
0.139294
0.137915
0.13653
0.135138
0.133737
0.132325
0.130903
0.129467
0.128016
0.126549
0.125064
0.12356
0.122035
0.120487
0.118915
0.117317
0.115692
0.114039
0.112355
0.11064
0.108892
0.107109
0.105292
0.103438
0.101547
0.0996176
0.0976497
0.0956427
0.0935962
0.0915102
0.0893847
0.0872202
0.0850173
0.0827769
0.0805001
0.0781884
0.0758436
0.0734679
0.0710638
0.0686341
0.066182
0.0637111
0.0612253
0.0587289
0.0562265
0.053723
0.0512239
0.0487344
0.0462605
0.0438079
0.0413828
0.0389914
0.0366398
0.0343341
0.0320805
0.0298848
0.0277526
0.0256893
0.0236999
0.0217889
0.0199602
0.0182172
0.016563
0.0149995
0.0135283
0.0121502
0.0108654
0.00967323
0.00857248
0.00756129
0.00663718
0.00579715
0.00503771
0.00435496
0.00374466
0.00320231
0.00272322
0.00230259
0.00193558
0.00161739
0.00134329
0.00110875
0.000909378
0.000741069
0.000599964
0.000482497
0.000385408
0.000305742
0.000240853
0.000188395
0.000146306
0.000112795
8.63196e-05
6.5567e-05
4.94287e-05
3.6979e-05
2.74523e-05
2.02217e-05
1.47788e-05
1.07156e-05
7.70756e-06
5.49936e-06
3.89201e-06
2.73196e-06
1.90187e-06
1.31301e-06
8.98887e-07
6.10163e-07
4.10701e-07
2.73939e-07
0.275939
0.275501
0.274909
0.27417
0.273284
0.272259
0.271103
0.269828
0.268441
0.266953
0.265374
0.263714
0.261981
0.260186
0.258337
0.256442
0.25451
0.252548
0.250564
0.248563
0.246552
0.244536
0.24252
0.240509
0.238505
0.236512
0.234533
0.232569
0.230624
0.228697
0.226791
0.224906
0.223041
0.221198
0.219375
0.217574
0.215793
0.214031
0.212289
0.210565
0.208859
0.20717
0.205497
0.20384
0.202197
0.200568
0.198952
0.197349
0.195758
0.194178
0.192609
0.19105
0.189501
0.187961
0.18643
0.184907
0.183391
0.181883
0.180381
0.178885
0.177394
0.175908
0.174425
0.172945
0.171467
0.169991
0.168514
0.167036
0.165555
0.164071
0.162582
0.161087
0.159584
0.158072
0.156549
0.155014
0.153465
0.1519
0.150318
0.148716
0.147093
0.145448
0.143778
0.142081
0.140355
0.1386
0.136812
0.13499
0.133132
0.131237
0.129302
0.127326
0.125308
0.123245
0.121137
0.118983
0.116781
0.11453
0.11223
0.10988
0.10748
0.105029
0.102529
0.0999797
0.0973819
0.094737
0.0920467
0.0893129
0.0865382
0.0837255
0.0808782
0.078
0.0750953
0.0721688
0.0692258
0.066272
0.0633133
0.0603563
0.0574078
0.054475
0.0515652
0.0486861
0.0458453
0.0430507
0.0403098
0.0376304
0.0350199
0.0324852
0.0300332
0.0276701
0.0254015
0.0232323
0.021167
0.0192088
0.0173606
0.0156241
0.0140003
0.0124892
0.0110899
0.00980082
0.00861952
0.00754279
0.00656681
0.00568712
0.00489882
0.00419658
0.00357478
0.0030276
0.00254911
0.00213337
0.00177451
0.0014668
0.00120475
0.000983104
0.000796953
0.000641722
0.000513208
0.000407592
0.000321439
0.00025169
0.000195653
0.000150979
0.000115643
8.79125e-05
6.6325e-05
4.9655e-05
3.68869e-05
2.71878e-05
1.9881e-05
1.44222e-05
1.03784e-05
7.40804e-06
5.24475e-06
3.6827e-06
2.5645e-06
1.77095e-06
1.21271e-06
8.23397e-07
5.54371e-07
3.69859e-07
0.31093
0.31043
0.30976
0.308929
0.30794
0.306802
0.305523
0.304117
0.302593
0.300962
0.299235
0.297423
0.295536
0.293585
0.291579
0.289529
0.287441
0.285325
0.283188
0.281037
0.278878
0.276716
0.274557
0.272404
0.270261
0.268132
0.266019
0.263924
0.261848
0.259794
0.257761
0.255751
0.253763
0.251798
0.249855
0.247934
0.246034
0.244155
0.242296
0.240456
0.238635
0.236831
0.235043
0.233272
0.231516
0.229774
0.228045
0.226329
0.224625
0.222933
0.221251
0.219579
0.217917
0.216264
0.21462
0.212983
0.211354
0.209731
0.208114
0.206502
0.204895
0.203292
0.201692
0.200093
0.198496
0.196899
0.195301
0.1937
0.192096
0.190487
0.188872
0.187249
0.185617
0.183973
0.182317
0.180647
0.17896
0.177255
0.175531
0.173784
0.172013
0.170216
0.16839
0.166534
0.164646
0.162722
0.160762
0.158762
0.156721
0.154636
0.152505
0.150326
0.148098
0.145817
0.143482
0.141092
0.138644