/*--------------------------------*- C++ -*----------------------------------*\
  =========                 |
  \\      /  F ield         | OpenFOAM: The Open Source CFD Toolbox
   \\    /   O peration     | Website:  https://openfoam.org
    \\  /    A nd           | Version:  7
     \\/     M anipulation  |
\*---------------------------------------------------------------------------*/
FoamFile
{
    version     2.0;
    format      ascii;
    class       volScalarField;
    location    "1.2";
    object      alpha.water;
}
// * * * * * * * * * * * * * * * * * * * * * * * * * * * * * * * * * * * * * //

dimensions      [0 0 0 0 0 0 0];

internalField   nonuniform List<scalar> 
6000
(
0
0
0
0
0
0
0
0
0
0
0
0
0
0
0
0
0
0
0
0
0
0
0
0
0
0
0
0
0
0
0
0
0
0
0
0
0
0
0
0
0
0
0
0
0
0
0
0
0
0
0
0
0
0
0
0
0
0
0
0
0
0
0
0
0
0
0
0
0
0
0
0
0
0
0
0
0
0
0
0
0
0
0
0
0
0
0
0
0
0
0
0
0
0
0
0
0
0
0
0
0
0
0
0
0
0
0
0
0
0
0
0
0
0
0
0
0
0
0
0
0
0
0
0
0
0
0
0
0
0
0
0
0
0
0
0
0
0
0
0
0
0
0
0
0
0
0
0
0
0
0
0
0
0
0
0
0
0
0
0
0
0
0
0
0
0
0
0
0
0
0
0
0
0
0
0
0
0
0
0
0
0
0
0
0
0
0
0
0
0
0
0
0
0
0
0
0
0
0
0
0
0
0
0
0
0
0
0
0
0
0
0
0
0
0
0
0
0
0
0
0
0
0
0
0
0
0
0
0
0
0
0
0
0
0
0
0
0
0
0
0
0
0
0
0
0
0
0
0
0
0
0
0
0
0
0
0
0
0
0
0
0
0
0
0
0
0
0
0
0
0
0
0
0
0
0
0
0
0
0
0
0
0
0
0
0
0
0
0
0
0
0
0
0
0
0
0
0
0
0
0
0
0
0
0
0
0
0
0
0
0
0
0
0
0
0
0
0
0
0
0
0
0
0
0
0
0
0
0
0
0
0
0
0
0
0
0
0
0
0
0
0
0
0
0
0
0
0
0
0
0
0
0
0
0
0
0
0
0
0
0
0
0
0
0
0
0
0
0
0
0
0
0
0
0
0
0
0
0
0
0
0
0
0
0
0
0
0
0
0
0
0
0
0
0
0
0
0
0
0
0
0
0
0
0
0
0
0
0
1.1230169483553e-45
4.346238636436e-44
8.3241745015642e-43
1.0517314973189e-41
9.8602788282511e-41
7.3156228140683e-40
4.4735904034374e-39
2.3188971974305e-38
1.0399688696368e-37
4.0987525436661e-37
1.4371826459746e-36
4.528005846054e-36
1.2923565883889e-35
3.3643883134201e-35
8.0352049408162e-35
1.7693651641112e-34
3.6078075451563e-34
6.8377781778955e-34
1.2085871470929e-33
1.9980874462602e-33
3.0979083488941e-33
4.5150812786812e-33
6.1991075520298e-33
8.0333087940285e-33
9.8428095935319e-33
1.1420698784488e-32
1.2567371891663e-32
1.3132578258604e-32
1.304778574102e-32
1.2339264204254e-32
1.1118667627275e-32
9.5551477095286e-33
7.838283811737e-33
6.1425921471884e-33
4.6020440272395e-33
3.2984845859202e-33
2.2631636029066e-33
1.4873282681568e-33
9.3673927791501e-34
5.656716814365e-34
3.2767179948227e-34
1.8214661339119e-34
9.7201627858821e-35
4.9813136722983e-35
2.4522552187632e-35
1.160001439419e-35
5.2738651619877e-36
2.304998626303e-36
9.6864535767106e-37
3.9145386957629e-37
1.5215114702021e-37
5.6884549348639e-38
2.045841251816e-38
7.0783296601747e-39
2.3560363075196e-39
7.5444128900226e-40
2.3240719621776e-40
6.8870189827842e-41
1.9630697037901e-41
5.3816608038831e-42
1.4187779109031e-42
3.5963257117075e-43
8.7632761525721e-44
2.0522973467897e-44
4.6181739209526e-45
9.9823468773722e-46
2.0719968299958e-46
4.1284435880412e-47
7.8932445237767e-48
1.4474759560575e-48
2.5447860673635e-49
4.2870116293557e-50
6.9164258912983e-51
1.0680026583963e-51
1.5774106064577e-52
2.2268664382399e-53
3.0025555897367e-54
3.863485913069e-55
4.7399561501131e-56
5.539369979931e-57
6.1601063039624e-58
6.5113632908558e-59
6.5340969683567e-60
6.2166899119819e-61
5.5998240242095e-62
4.7682494792068e-63
3.8316085439123e-64
2.9002956848032e-65
2.0638056772509e-66
1.3775340640251e-67
9.1338773633225e-69
0
0
0
0
0
0
0
-1.037940881777e-35
-3.5155424042707e-34
-5.8568686971978e-33
-6.3879913309964e-32
-5.1187094766311e-31
-3.2028581135403e-30
-1.6216249379088e-29
-6.7782424399101e-29
-2.3557642329338e-28
-6.7432385398338e-28
-1.5203035329843e-27
-2.2600139742777e-27
4.3960416356765e-28
1.8294479292639e-26
8.2893340755353e-26
2.6514478042132e-25
7.0173413712828e-25
1.6216055661692e-24
3.3579248861034e-24
6.3262457263009e-24
1.0953439857835e-23
1.7557719456908e-23
2.6204568393988e-23
3.6585813672827e-23
4.7975528551768e-23
5.92985114739e-23
6.930872321717e-23
7.6832595720776e-23
8.1005783837613e-23
8.143429440492e-23
7.8239868469376e-23
7.1990209042668e-23
6.3548835849869e-23
5.3895008492036e-23
4.3960049240264e-23
3.4509737409492e-23
2.6082969644747e-23
1.8981657167106e-23
1.329841951293e-23
8.9661831380858e-24
5.8151808808068e-24
3.6261942225636e-24
2.1729624417369e-24
1.2507149256157e-24
6.9116207946372e-25
3.6656444028378e-25
1.8652054787288e-25
9.1030761712604e-26
4.2602327146487e-26
1.9115087933738e-26
8.2213489817407e-27
3.3889691003056e-27
1.338715075447e-27
5.0669197319158e-28
1.8372682690999e-28
6.381261636994e-29
2.1226174557192e-29
6.7605932317836e-30
2.0613487386724e-30
6.0154022068358e-31
1.6795886982839e-31
4.4856857379969e-32
1.1454796470254e-32
2.7957891791799e-33
6.5190616605858e-34
1.451483205937e-34
3.0842067811208e-35
6.2504520193808e-36
1.2073109473404e-36
2.2209502010237e-37
3.8878430889486e-38
6.4703828142791e-39
1.0227344103958e-39
1.5336373865092e-40
2.1790882137314e-41
2.929739711009e-42
3.7216276723387e-43
4.4592717150052e-44
5.0306041316472e-45
5.3322321981976e-46
5.2982709854927e-47
4.922419297129e-48
4.2636836003942e-49
3.4318659202856e-50
2.5573761803558e-51
1.7567928374139e-52
1.1070348187362e-53
6.3622611271751e-55
3.312183376128e-56
1.5492911320768e-57
6.4471463384529e-59
2.3576826961187e-60
7.6640088581535e-62
0
0
0
0
0
0
-4.6043881345442e-34
-1.6685965963108e-32
-2.9851677495689e-31
-3.514580717664e-30
-3.0628332768531e-29
-2.1068937821363e-28
-1.1913559321631e-27
-5.6939841762893e-27
-2.3472427213228e-26
-8.4744306493607e-26
-2.7116473768913e-25
-7.7625550894059e-25
-2.0029851455484e-24
-4.6864131025408e-24
-9.9887864954786e-24
-1.9461955598759e-23
-3.4738588705571e-23
-5.6847201460986e-23
-8.5183054169313e-23
-1.1639213493506e-22
-1.4364714093329e-22
-1.5686932273993e-22
-1.4426137418912e-22
-9.5065113242013e-23
-2.9009670261176e-24
1.3135836879049e-22
2.9825476992382e-22
4.8061223868183e-22
6.565530933285e-22
8.0388524077939e-22
9.0463237689434e-22
9.4846478990264e-22
9.3418772197882e-22
8.6907940433106e-22
7.6649923846498e-22
6.4260111964328e-22
5.1308652172795e-22
3.9074034949178e-22
2.84127391997e-22
1.9744008573639e-22
1.3120359621442e-22
8.342115053714e-23
5.0770797392103e-23
2.958776886315e-23
1.6515692512041e-23
8.8322513843714e-24
4.5260671502716e-24
2.2228682457127e-24
1.0464115567241e-24
4.7219980063354e-25
2.0427148856772e-25
8.4714646084267e-26
3.3680142185751e-26
1.2836167520448e-26
4.6893149248222e-27
1.6419019752534e-27
5.5091466395577e-28
1.7710871084449e-28
5.4540152387469e-29
1.6084164002216e-29
4.5410166328234e-30
1.2269531217049e-30
3.1714011906884e-31
7.8384477864597e-32
1.8516126000528e-32
4.1780513096488e-33
8.9999243802384e-34
1.8495115283626e-34
3.6233625526945e-35
6.7617041786578e-36
1.200909280146e-36
2.027952914885e-37
3.2526965464664e-38
4.9495751143106e-39
7.1364648656688e-40
9.7361480061528e-41
1.2549233004023e-41
1.5256033781053e-42
1.7460269546512e-43
1.8773541641003e-44
1.8920200980834e-45
1.7826601886783e-46
1.5657202135627e-47
1.2777248320844e-48
9.651984183926e-50
6.7203796013108e-51
4.2916256035876e-52
2.4991684534976e-53
1.3181311949316e-54
6.2456130008218e-56
2.6323637764621e-57
9.7485456270055e-59
3.1230501890459e-60
8.6725840632532e-62
0
0
0
0
0
1.5285735352881e-35
-7.6964908069555e-33
-2.8407419898739e-31
-5.0575932212613e-30
-5.896743032479e-29
-5.0828969104004e-28
-3.4588959163184e-27
-1.9362712700435e-26
-9.171547343524e-26
-3.7519857480948e-25
-1.3463496230342e-24
-4.289374833333e-24
-1.225109482546e-23
-3.1616747266667e-23
-7.4203414990124e-23
-1.5922055864383e-22
-3.1370419568339e-22
-5.6947816568557e-22
-9.5494868565661e-22
-1.4816166774813e-21
-2.1280195462736e-21
-2.8268741763729e-21
-3.4627319467391e-21
-3.8858464779936e-21
-3.9428369251139e-21
-3.5176856702881e-21
-2.57073617434e-21
-1.161777459683e-21
5.5259234541516e-22
2.3486235718888e-21
3.9839437717557e-21
5.2503647736442e-21
6.0154761593051e-21
6.2422068891659e-21
5.9835023040667e-21
5.3571758625291e-21
4.5109993976523e-21
3.5889294139583e-21
2.7065828523378e-21
1.9394518254477e-21
1.3229056876992e-21
8.6018637999527e-22
5.337902767466e-22
3.164275090121e-22
1.793268890249e-22
9.7223467640345e-23
5.045359495505e-23
2.5073171953828e-23
1.1936791961733e-23
5.445769931472e-24
2.38136331741e-24
9.9829538404013e-25
4.0123998938229e-25
1.5462491945525e-25
5.713183174969e-26
2.0238085625897e-26
6.8722591070418e-27
2.236621236085e-27
6.9751035929211e-28
2.0837978155274e-28
5.9616672378964e-29
1.6327766044893e-29
4.2790875016325e-30
1.072599767084e-30
2.5701628774932e-31
5.8839744611567e-32
1.2861572319269e-32
2.682440683401e-33
5.3339682494493e-34
1.0104064533795e-34
1.8216944169535e-35
3.1229231456347e-36
5.0849525906758e-37
7.8549372425575e-38
1.1496648480569e-38
1.5920681129831e-39
2.0827784363214e-40
2.5696675705161e-41
2.9843348683006e-42
3.2557486787704e-43
3.3287485779798e-44
3.1813658032745e-45
2.8339077370834e-46
2.345148526885e-47
1.7961597877884e-48
1.2678004195353e-49
8.2061787898636e-51
4.8429552121436e-52
2.5882352181484e-53
1.2424694094663e-54
5.3046721764466e-56
1.9897212040164e-57
6.4552076842987e-59
1.7746735844074e-60
4.0931525005131e-62
0
0
0
0
0
2.8416550406623e-34
-6.2951053645904e-32
-2.3912545812179e-30
-4.2564204636861e-29
-4.9304283006249e-28
-4.2138907760421e-27
-2.8415628914249e-26
-1.5763070545458e-25
-7.4010449950996e-25
-3.0022975937519e-24
-1.0687348410367e-23
-3.3790779485424e-23
-9.5814930577002e-23
-2.4557347352573e-22
-5.7258610546239e-22
-1.2210113250983e-21
-2.3917535669164e-21
-4.3188652532576e-21
-7.2091729220533e-21
-1.1146575630716e-20
-1.5983167597609e-20
-2.1259652110153e-20
-2.620429895989e-20
-2.9842694893484e-20
-3.1210810345442e-20
-2.9616823756102e-20
-2.4865987375487e-20
-1.7365754367445e-20
-8.0671580331686e-21
1.7434185476229e-21
1.0736088442278e-20
1.7822615803825e-20
2.235485629023e-20
2.4193031890091e-20
2.3645879330583e-20
2.132159133531e-20
1.7945901484899e-20
1.4200033656031e-20
1.0612611110562e-20
7.5157502707244e-21
5.0554935097397e-21
3.2357228059587e-21
1.9733511453561e-21
1.14803652362e-21
6.3772657569664e-22
3.3852169323768e-22
1.7183297109195e-22
8.3453804322624e-23
3.8798807580674e-23
1.727428264502e-23
7.3677202675458e-24
3.0111048372363e-24
1.1793786268277e-24
4.4274923195908e-25
1.5931278406677e-25
5.4942999266433e-26
1.8159110418995e-26
5.7507031068074e-27
1.7445707105261e-27
5.0683777522963e-28
1.4096421956783e-28
3.7517231135755e-29
9.5506498823389e-30
2.3242840166029e-30
5.4044117265699e-31
1.1998679577141e-31
2.5417908187193e-32
5.1337421754968e-33
9.8776089738221e-34
1.8088204792708e-34
3.1494246488567e-35
5.208180403839e-36
8.1704053108849e-37
1.214339129855e-37
1.7074896798106e-38
2.2678861458886e-39
2.8404397312275e-40
3.3483488433005e-41
3.7072218991197e-42
3.8461838181833e-43
3.7294791214447e-44
3.3700637297733e-45
2.8286007159305e-46
2.1969770482046e-47
1.5723198178672e-48
1.031741388361e-49
6.1717914229039e-51
3.3427765481681e-52
1.6260171706409e-53
7.0334442810184e-55
2.6724367926453e-56
8.7814903346266e-58
2.444881711799e-59
5.6079230950755e-61
1.0313041874716e-62
0
0
0
0
1.4973204867707e-45
2.6354740223168e-33
-3.3406123289211e-31
-1.3207172758923e-29
-2.3572018543806e-28
-2.7166433528572e-27
-2.304011286396e-26
-1.5402006638623e-25
-8.4668995612585e-25
-3.9390901636419e-24
-1.5832967858241e-23
-5.5841876090205e-23
-1.7490956773769e-22
-4.9122080432049e-22
-1.2465630817013e-21
-2.8766598532097e-21
-6.0685785579875e-21
-1.1754678594596e-20
-2.0981461984304e-20
-3.4613956970203e-20
-5.2902466500992e-20
-7.5031961005322e-20
-9.8848008532516e-20
-1.2095124439808e-19
-1.3724891139439e-19
-1.4387725534502e-19
-1.382398180115e-19
-1.1982569594237e-19
-9.0519823029117e-20
-5.4277147664944e-20
-1.6242545788981e-20
1.8419341645812e-20
4.5631785980386e-20
6.3136477994369e-20
7.0679655997928e-20
6.9681084130966e-20
6.257325466905e-20
5.206461692021e-20
4.054378588715e-20
2.9739312859978e-20
2.063858337632e-20
1.3593772976258e-20
8.5175123562265e-21
5.0855836177212e-21
2.8972040814317e-21
1.5763231804534e-21
8.1970343528409e-22
4.0762295793535e-22
1.9392954368674e-22
8.830147875121e-23
3.8490798141566e-23
1.6066192427213e-23
6.4226751515039e-24
2.4593660909243e-24
9.0212781694055e-25
3.1699949866456e-25
1.0670275322058e-25
3.4401082757285e-26
1.0621169371771e-26
3.1395827897501e-27
8.8825604848644e-28
2.4044195992202e-28
6.2244319708046e-29
1.5402475286451e-29
3.6411522175673e-30
8.2181211305978e-31
1.7696616536383e-31
3.6329544450766e-32
7.1042355629671e-33
1.3220980270442e-33
2.339176752269e-34
3.9304255653887e-35
6.2643152357014e-36
9.4579579627131e-37
1.3507963518715e-37
1.8220930885021e-38
2.3173510782772e-39
2.7735114203661e-40
3.1172669548604e-41
3.2825576009011e-42
3.2301025748229e-43
2.9615542123283e-44
2.5217007102815e-45
1.9866180537146e-46
1.4418616532328e-47
9.5934539852397e-49
5.8178929782479e-50
3.1940628059761e-51
1.5746324130513e-52
6.9022363966453e-54
2.657600278157e-55
8.8524399088394e-57
2.5031913251125e-58
5.8874056186913e-60
1.1546284433194e-61
2.3558174767049e-63
0
0
0
0
2.9472921402852e-44
1.6247651687618e-32
-1.283188739968e-30
-5.3674809321649e-29
-9.6379678465076e-28
-1.106653701639e-26
-9.3195189442603e-26
-6.1772899744818e-25
-3.3648198922062e-24
-1.5505306021078e-23
-6.1710355518498e-23
-2.1543665268467e-22
-6.6766159826891e-22
-1.8543132166024e-21
-4.65084074756e-21
-1.0601036259023e-20
-2.2076709142129e-20
-4.2193431747048e-20
-7.4295552244963e-20
-1.2093360731623e-19
-1.82495827393e-19
-2.5592900080113e-19
-3.3412601570991e-19
-4.0643785575873e-19
-4.6040634915709e-19
-4.8438277223605e-19
-4.703898418415e-19
-4.1647609892058e-19
-3.2786528627772e-19
-2.1640007962642e-19
-9.8177350177562e-20
1.0124536244183e-20
9.5131564596263e-20
1.4956657503716e-19
1.7304314179587e-19
1.708058325857e-19
1.511834234896e-19
1.2287494126722e-19
9.2972518602929e-20
6.6084058150726e-20
4.4406545880679e-20
2.8339769825843e-20
1.7233182029782e-20
1.0007477998947e-20
5.5576006483384e-21
2.9539100852262e-21
1.5031770125034e-21
7.3242897253069e-22
3.4169935894737e-22
1.5261872638178e-22
6.525633198148e-23
2.6709699574552e-23
1.0465053138996e-23
3.925029989869e-24
1.4092128159292e-24
4.843242913399e-25
1.5933058625642e-25
5.0167157631346e-26
1.5115560629185e-26
4.357231641917e-27
1.2012815835385e-27
3.1663684724746e-28
7.9756068012431e-29
1.9187720700896e-29
4.4063654168659e-30
9.6525725023276e-31
2.0155148459284e-31
4.008203971984e-32
7.5847068247356e-33
1.364327780085e-33
2.3303117570474e-34
3.7748911151588e-35
5.7918969465113e-36
8.4050505211428e-37
1.1518084073619e-37
1.4879582882399e-38
1.808614454996e-39
2.0641114547104e-40
2.2066785292697e-41
2.2041133804951e-42
2.0509302095089e-43
1.7719880961196e-44
1.4162518685421e-45
1.0426348806043e-46
7.035445716907e-48
4.326325441874e-49
2.4080775045852e-50
1.2034755550538e-51
5.3481035808602e-53
2.08875795466e-54
7.0746657302353e-56
2.0554625806185e-57
5.2085453169995e-59
1.3506501241598e-60
5.5679048212881e-62
4.2500873963017e-63
0
0
0
0
2.8665401964015e-43
7.4846494789807e-32
-3.7536451112945e-30
-1.7058264856253e-28
-3.0957626087347e-27
-3.5475824021441e-26
-2.9687729141679e-25
-1.9517028132741e-24
-1.0533575508392e-23
-4.8064123826568e-23
-1.8932684558998e-22
-6.5385360010049e-22
-2.0035451729854e-21
-5.4986689592049e-21
-1.3619759548918e-20
-3.06394933997e-20
-6.2939342583583e-20
-1.1860601860175e-19
-2.0587606781619e-19
-3.3034821199238e-19
-4.9149636101587e-19
-6.7962887592454e-19
-8.7473070693739e-19
-1.0483748607698e-18
-1.1690071839371e-18
-1.2095134749908e-18
-1.1546582537824e-18
-1.0056976199124e-18
-7.8065307435023e-19
-5.1055930319767e-19
-2.3309880640321e-19
1.4930535790191e-20
2.0499337480676e-19
3.2236058792784e-19
3.6796426552259e-19
3.5572140225474e-19
3.0646477617131e-19
2.4114670337388e-19
1.7591796024969e-19
1.2025283567412e-19
7.7662848425612e-20
4.7693526361543e-20
2.7984043524735e-20
1.573776728511e-20
8.4975037847546e-21
4.4072437102045e-21
2.1949464787848e-21
1.0488786252341e-21
4.8048586697602e-22
2.1083163672012e-22
8.8555641643216e-23
3.5590691087193e-23
1.3683201159551e-23
5.0317220311346e-24
1.7697059407502e-24
5.9529047314286e-25
1.9150526296482e-25
5.8913852066533e-26
1.732894882368e-26
4.8724311874536e-27
1.3091927646148e-27
3.3602826534689e-28
8.2348648785263e-29
1.9257682543563e-29
4.2947820466772e-30
9.1275518468526e-31
1.847111041792e-31
3.556052559404e-32
6.5065434043725e-33
1.1302306373376e-33
1.8616582219355e-34
2.9038931878985e-35
4.2833763465892e-36
5.9653166500065e-37
7.8301803949185e-38
9.6688362051827e-39
1.1207973454375e-39
1.2167927774052e-40
1.2339926230258e-41
1.1655960388846e-42
1.0221025031397e-43
8.2895239058642e-45
6.1915264742668e-46
4.2379741948506e-47
2.6431412817969e-48
1.4919723747592e-49
7.5619165033344e-51
3.4096035570599e-52
1.3538229975457e-53
4.6976552568415e-55
1.441781936364e-56
4.3392692058198e-58
1.7594618253062e-59
1.1769508142616e-60
9.7997671848598e-62
8.8537808128438e-63
0
0
0
0
1.8368707312249e-42
2.7455867714399e-31
-8.4894973132963e-30
-4.3936003175393e-28
-8.1126665343565e-27
-9.3003873695138e-26
-7.742376380411e-25
-5.0506414751708e-24
-2.7012469379349e-23
-1.2204365856683e-22
-4.7575157279958e-22
-1.6254195798888e-21
-4.9261396522356e-21
-1.3370666580531e-20
-3.2754378441127e-20
-7.2883867794386e-20
-1.4810070205048e-19
-2.7605318809251e-19
-4.7375602399249e-19
-7.5080065965108e-19
-1.1010450803931e-18
-1.4957226709515e-18
-1.8818476477416e-18
-2.1892246011241e-18
-2.346915071336e-18
-2.3057986501178e-18
-2.0586606105549e-18
-1.6463310589634e-18
-1.1434471781151e-18
-6.307211209033e-19
-1.7098350981247e-19
1.9837856167498e-19
4.5957976285584e-19
6.0759705428706e-19
6.4937883177835e-19
6.0541062881089e-19
5.0686179921415e-19
3.8720519124725e-19
2.7313367555208e-19
1.7981244282119e-19
1.1158835074916e-19
6.5868505884737e-20
3.7251477233603e-20
2.0282470620104e-20
1.0655782843653e-20
5.4018815115147e-21
2.6386018072828e-21
1.2392911708395e-21
5.5853502277365e-22
2.4114137881401e-22
9.9612552988733e-23
3.9341364851308e-23
1.4849131175332e-23
5.3554134661355e-24
1.8454620644187e-24
6.0762757404306e-25
1.9115467359814e-25
5.7453992682593e-26
1.6496195842327e-26
4.5235397379704e-27
1.1843135978238e-27
2.9591762501823e-28
7.0529785021346e-29
1.6025580516442e-29
3.4689378405679e-30
7.1479689640356e-31
1.4008540878529e-31
2.608586682642e-32
4.6105523864007e-33
7.7254097570896e-34
1.2255903961827e-34
1.8382443302571e-35
2.6026327257135e-36
3.4723546147316e-37
4.3572263873824e-38
5.1316545637991e-39
5.6591640373056e-40
5.8286083858025e-41
5.5902221149072e-42
4.9764243973838e-43
4.0964708915787e-44
3.1049493929066e-45
2.1563467776775e-46
1.3643616520253e-47
7.8129026585474e-49
4.0184657635437e-50
1.841147663899e-51
7.4646643070058e-53
2.6920215045828e-54
9.1482538747233e-56
3.6089433716647e-57
2.1733876614001e-58
1.7999320164535e-59
1.5883354351106e-60
1.3513681510392e-61
1.1736022760592e-62
0
0
0
0
8.7242799585353e-42
8.3458726759787e-31
-1.4403232613295e-29
-9.3610664697684e-28
-1.7766928531633e-26
-2.0446538347063e-25
-1.6959198250291e-24
-1.0986349319015e-23
-5.8250988789937e-23
-2.606633959167e-22
-1.0059876003396e-21
-3.4030999278007e-21
-1.0219305764245e-20
-2.7519490762272e-20
-6.7000422720416e-20
-1.4843152230331e-19
-3.0067626943968e-19
-5.5884218368987e-19
-9.5503803775143e-19
-1.5021765950243e-18
-2.1747270984729e-18
-2.8955890856984e-18
-3.5404532263255e-18
-3.9641501108789e-18
-4.0412463598791e-18
-3.7136238673274e-18
-3.0409925799719e-18
-2.2173728679489e-18
-1.4907026698232e-18
-1.0057245831102e-18
-7.1414844347302e-19
-4.5674492844285e-19
-1.3154873472577e-19
2.25992668965e-19
5.0526933066298e-19
6.2898949052032e-19
6.0177500299776e-19
4.8429922562864e-19
3.4329214382967e-19
2.2110885457173e-19
1.3254137495633e-19
7.5339438897598e-20
4.1154324152555e-20
2.1770251264024e-20
1.117980569303e-20
5.5660076736526e-21
2.6776083979701e-21
1.2399704772685e-21
5.5096310149443e-22
2.343369380318e-22
9.5257005095125e-23
3.6975762665443e-23
1.3700334033581e-23
4.8449696810091e-24
1.6353425516058e-24
5.2688013409233e-25
1.6203729124188e-25
4.7566635845018e-26
1.3326575518126e-26
3.5625705537773e-27
9.0843059977233e-28
2.2085778996237e-28
5.1167144975524e-29
1.128880818327e-29
2.3700675416475e-30
4.7311011646562e-31
8.9709943920011e-32
1.6141234837732e-32
2.7525948546296e-33
4.4432022245117e-34
6.7792273915456e-35
9.7614587603445e-36
1.3241924542188e-36
1.6891334298607e-37
2.0218116160431e-38
2.2655240240291e-39
2.3703869113295e-40
2.3090205733932e-41
2.0872244534669e-42
1.7443228511598e-43
1.342010060316e-44
9.4588344338978e-46
6.073447797788e-47
3.5299601564841e-48
1.8442310663883e-49
8.607498415414e-51
3.5897021999187e-52
1.3764071634579e-53
5.4777631587228e-55
2.914029670144e-56
2.2589084662469e-57
2.055232574292e-58
1.8682363753458e-59
1.6174050810576e-60
1.3200141313481e-61
1.0906223239703e-62
0
0
0
0
3.2758067513797e-41
2.1599036230762e-30
-1.5405327722531e-29
-1.6630869883126e-27
-3.2992836184218e-26
-3.8314511756157e-25
-3.1738792361085e-24
-2.0443961880929e-23
-1.0754643593775e-22
-4.7698502396065e-22
-1.8243098210151e-21
-6.1219410683104e-21
-1.8278706581479e-20
-4.9113703472684e-20
-1.1979959913832e-19
-2.6685224131283e-19
-5.4452480608345e-19
-1.0186589458864e-18
-1.7452736082916e-18
-2.7336647389132e-18
-3.9103789322334e-18
-5.1121808660964e-18
-6.1223725231842e-18
-6.7267834568615e-18
-6.7757106655965e-18
-6.321751593734e-18
-5.7178360629716e-18
-5.4659776413926e-18
-5.7975624074449e-18
-6.3147404140051e-18
-6.2486879181666e-18
-5.1853900033276e-18
-3.416399783461e-18
-1.6111645300655e-18
-2.9563496985591e-19
3.8462503673356e-19
5.7468471988198e-19
5.0648550395946e-19
3.5944697421396e-19
2.2493248161406e-19
1.3001155004089e-19
7.145747673297e-20
3.8011288459148e-20
1.9726791550429e-20
9.9928581111447e-21
4.9211590861394e-21
2.3429690825597e-21
1.0728468719219e-21
4.7062572359864e-22
1.9727110201469e-22
7.8897935350854e-23
3.0087306422522e-23
1.0937675470891e-23
3.7906076138736e-24
1.2525489508372e-24
3.9467653952566e-25
1.185987019761e-25
3.3986016199748e-26
9.2863193871152e-27
2.4188043747501e-27
6.003602554571e-28
1.4192801094204e-28
3.1938319138336e-29
6.8365831624343e-30
1.3909044181062e-30
2.6871178268556e-31
4.9244549315653e-32
8.5508845176578e-33
1.4050455109781e-33
2.1816401680424e-34
3.1960460661247e-35
4.4099585305347e-36
5.7203751704699e-37
6.9610140476388e-38
7.9280760015943e-39
8.429150161055e-40
8.3417733256941e-41
7.6589617352419e-42
6.499915426572e-43
5.0773588929932e-44
3.6330157701567e-45
2.3682186329391e-46
1.397958912818e-47
7.4295957656371e-49
3.545858628436e-50
1.5380435375735e-51
6.4582901045344e-53
3.1388728372249e-54
2.1533844286203e-55
1.9261258484374e-56
1.8394264717826e-57
1.7070588563694e-58
1.5013895368941e-59
1.2440609624134e-60
9.6879654059369e-62
7.5911891254928e-63
0
0
0
0
1.0129066551721e-40
4.852361993915e-30
2.9175921234126e-30
-2.4452136966285e-27
-5.2267557587478e-26
-6.1765951496879e-25
-5.1288817984837e-24
-3.2915978959063e-23
-1.7203684250316e-22
-7.5721252305374e-22
-2.8749992345477e-21
-9.5985332004114e-21
-2.8637200120384e-20
-7.735084026241e-20
-1.9082067344248e-19
-4.3159200671666e-19
-8.9444260509951e-19
-1.6926116300411e-18
-2.915513342764e-18
-4.5739171122388e-18
-6.5713848364072e-18
-8.7122964723135e-18
-1.0772738301613e-17
-1.2415104290695e-17
-1.311621204709e-17
-1.2992714346413e-17
-1.4660453166344e-17
-1.9500029432954e-17
-2.5062786663915e-17
-2.1216028333756e-17
-8.5576081029509e-18
2.9173428080072e-18
4.1793497602876e-18
1.4771287432313e-18
1.6049057406092e-19
2.4409718198219e-19
4.6340793604025e-19
4.4223329319927e-19
3.1002113924134e-19
1.8736350982092e-19
1.0506679292488e-19
5.6613400126108e-20
2.9795518431432e-20
1.5384890204424e-20
7.7675687736041e-21
3.808339406078e-21
1.8004565416668e-21
8.1622011460756e-22
3.5350446078997e-22
1.4595383041548e-22
5.7388540322444e-23
2.1482410458059e-23
7.6561908136361e-24
2.5984170277657e-24
8.399956468788e-25
2.5870153386685e-25
7.5912479746712e-26
2.122293541587e-26
5.652049256374e-27
1.4334711168448e-27
3.4607832534471e-28
7.9493117809701e-29
1.7360819178262e-29
3.60214858495e-30
7.094439503977e-31
1.3249581324893e-31
2.3438122649483e-32
3.9222292004459e-33
6.2004871456051e-34
9.2454968047782e-35
1.2980901055659e-35
1.7128921613265e-36
2.1198167481331e-37
2.4547198668452e-38
2.6528782328677e-39
2.6680012878863e-40
2.4888092244683e-41
2.1455184788948e-42
1.7021266909238e-43
1.2368539533904e-44
8.1892100273525e-46
4.9140791285005e-47
2.6621798442973e-48
1.3064071120836e-49
5.9820253083993e-51
2.8363732988028e-52
1.7003900977605e-53
1.4032730677222e-54
1.3623517789587e-55
1.341037257163e-56
1.2662910877474e-57
1.1306203701182e-58
9.5072494674995e-60
7.5126305732108e-61
5.5667202676963e-62
4.1243844545628e-63
0
0
0
0
2.6527648705076e-40
9.6005493977392e-30
6.3801553192961e-29
-2.8621636346338e-27
-7.0336655908381e-26
-8.583012439224e-25
-7.188012739342e-24
-4.6115775714661e-23
-2.4002290201596e-22
-1.0506434561242e-21
-3.9705111887536e-21
-1.3241737570979e-20
-3.9720249450283e-20
-1.0872192447114e-19
-2.735369116775e-19
-6.3220819376794e-19
-1.3341936183343e-18
-2.5510383831176e-18
-4.4118022343646e-18
-6.9659006788438e-18
-1.0188640617405e-17
-1.3968527206493e-17
-1.8046792337582e-17
-2.1136715441759e-17
-2.208766481495e-17
-2.410857164332e-17
-9.0211296762447e-18
-1.7258310233197e-17
7.0256300777061e-17
-1.3877787807814e-17
0.0039398124656634
-4.5319650809894e-17
7.7927446963818e-18
2.3694609099678e-18
-5.4822059539447e-20
2.6708833299834e-19
4.0323217287483e-19
3.3396434749639e-19
2.1816914453615e-19
1.2788255093679e-19
7.1029071269141e-20
3.8351549671597e-20
2.0334385253801e-20
1.0577069669922e-20
5.3598581874776e-21
2.6241095503726e-21
1.2326296945307e-21
5.528913287622e-22
2.3615742767279e-22
9.5927545345318e-23
3.7041214395572e-23
1.3597693455144e-23
4.7469984919624e-24
1.5765398990961e-24
4.9826397330938e-25
1.4989035765374e-25
4.2922156305141e-26
1.1699187107088e-26
3.0346421732502e-27
7.4883931755567e-28
1.7570876855777e-28
3.9179662952707e-29
8.2961189542706e-30
1.666736320157e-30
3.17404217354e-31
5.7231187350644e-32
9.7586429667485e-33
1.5713891862684e-33
2.3858939677262e-34
3.4100091159105e-35
4.5791203219731e-36
5.7653720987732e-37
6.7902779085484e-38
7.461794329884e-39
7.628535344178e-40
7.2322283125216e-41
6.3350123198618e-42
5.1059697012691e-43
3.7694342208394e-44
2.5365009434772e-45
1.5491154154781e-46
8.5790904625376e-48
4.3609563762491e-49
2.1456058090466e-50
1.1759600818422e-51
8.524992276059e-53
7.9719623224111e-54
8.1413967769765e-55
8.1960044472996e-56
7.8630242383559e-57
7.1244112403016e-58
6.077990239712e-59
4.8721359039104e-60
3.6618758574061e-61
2.5745323033437e-62
1.7980235301295e-63
0
0
0
0
6.0067991186562e-40
1.6913464751621e-29
1.9384505302551e-28
-2.300676978816e-27
-7.8564390161494e-26
-1.0195431771702e-24
-8.7069942486101e-24
-5.6167703159411e-23
-2.9227923854663e-22
-1.2768145627698e-21
-4.8221053416083e-21
-1.6152376113277e-20
-4.9062904556456e-20
-1.3713385013431e-19
-3.5387333508706e-19
-8.3724662913861e-19
-1.7957190615297e-18
-3.4588799690837e-18
-6.006348971548e-18
-9.5769563105966e-18
-1.4218605418181e-17
-2.2377725360785e-17
-3.6381272777586e-17
-4.7342446043963e-17
-5.4146665055438e-17
-5.0375260968009e-17
-4.8572257327351e-17
0.19244712941999
0.70148352493516
0.96449621735797
0.97330316770772
0.74580327312617
0.2980939953838
-1.4567184765699e-20
1.1882771036367e-19
2.5806734848625e-19
2.6321949740885e-19
1.9554394974594e-19
1.2470616317387e-19
7.3524808405884e-20
4.1589118139528e-20
2.2968413247636e-20
1.2426433019291e-20
6.5508770242532e-21
3.3369646069444e-21
1.6300375140313e-21
7.5944869481929e-22
3.3641893289403e-22
1.4148015573549e-22
5.6462444387789e-23
2.1386835445963e-23
7.692134670609e-24
2.6283359460525e-24
8.5358512759484e-25
2.6356858902277e-25
7.739404986235e-26
2.161262775298e-26
5.7391199590004e-27
1.4487960294758e-27
3.4755019260759e-28
7.9184551400254e-29
1.7123096139954e-29
3.5114957299866e-30
6.8227881407375e-31
1.254657449442e-31
2.180999177719e-32
3.5790134430556e-33
5.5359475969573e-34
8.0577195309872e-35
1.1015768806745e-35
1.411568353931e-36
1.6915104587561e-37
1.8906849718113e-38
1.9655712738554e-39
1.8944568842364e-40
1.6866967515648e-41
1.3816457707231e-42
1.0367422934873e-43
7.0957534926373e-45
4.4175340580851e-46
2.5103622887831e-47
1.3341560844384e-48
7.1825798603354e-50
4.5954861811386e-51
3.8912137450768e-52
3.9565328671414e-53
4.1831373387388e-54
4.2911271051791e-55
4.1798361260535e-56
3.8424827851701e-57
3.3253009626599e-58
2.7035957126433e-59
2.0607454033254e-60
1.4691500121827e-61
9.7711452621087e-63
6.4113755604858e-64
0
0
0
0
1.1945818151633e-39
2.6756900614586e-29
4.1114874440151e-28
-1.6636391958313e-28
-6.7589643705977e-26
-1.0054217973529e-24
-8.9627123930509e-24
-5.8797457141091e-23
-3.0816486953231e-22
-1.3518779714246e-21
-5.1358622802857e-21
-1.7414726334254e-20
-5.4030713286441e-20
-1.5531604885443e-19
-4.1232805252209e-19
-9.9706579482601e-19
-2.1658076529846e-18
-4.2016647081811e-18
-7.3699901839685e-18
-1.1944435667811e-17
-1.7871722933469e-17
-3.0705942658537e-17
-5.2138105475364e-17
-5.8392459211067e-17
-2.5122942711146e-17
5.2041704279304e-17
0.35503265924583
0.98651607830358
0.99999999999993
0.99999999999989
0.99999999999989
0.99999999999991
0.99958511284441
0.51308551160657
8.9840460887701e-20
1.274648743309e-19
1.2184744016536e-19
9.2087499681685e-20
6.0777142090009e-20
3.7278671877063e-20
2.1951868786504e-20
1.2546172680709e-20
6.9514140939146e-21
3.7099401105593e-21
1.893935741432e-21
9.2001329269025e-22
4.2394015562541e-22
1.8504959282619e-22
7.649298577787e-23
2.9953870306739e-23
1.1118642715231e-23
3.9148528946662e-24
1.308321140734e-24
4.1520514294991e-25
1.2517134249876e-25
3.5851793057022e-26
9.7561085898533e-27
2.5218946606366e-27
6.1904030959445e-28
1.4422654622378e-28
3.1873981833586e-29
6.6767052387613e-30
1.3244407685705e-30
2.4853994480982e-31
4.4069655386859e-32
7.3736822003416e-33
1.1624740056532e-33
1.7239117465904e-34
2.40036822845e-35
3.1317007155246e-36
3.8197046140309e-37
4.3442961244115e-38
4.5942169386083e-39
4.5031986164272e-40
4.0766606338186e-41
3.3952373525136e-42
2.5909696144436e-43