/*--------------------------------*- C++ -*----------------------------------*\
  =========                 |
  \\      /  F ield         | OpenFOAM: The Open Source CFD Toolbox
   \\    /   O peration     | Website:  https://openfoam.org
    \\  /    A nd           | Version:  7
     \\/     M anipulation  |
\*---------------------------------------------------------------------------*/
FoamFile
{
    version     2.0;
    format      ascii;
    class       volScalarField;
    location    "1.5";
    object      alpha.water;
}
// * * * * * * * * * * * * * * * * * * * * * * * * * * * * * * * * * * * * * //

dimensions      [0 0 0 0 0 0 0];

internalField   nonuniform List<scalar> 
6000
(
0
0
0
0
0
0
0
0
0
0
0
0
0
0
0
0
0
0
0
0
0
0
0
0
0
0
0
0
0
0
0
0
0
0
0
0
0
0
0
0
0
0
0
0
0
0
0
0
0
0
0
0
0
0
0
0
0
0
0
0
0
0
0
0
0
0
0
0
0
0
0
0
0
0
0
0
0
0
0
0
0
0
0
0
0
0
0
0
0
0
0
0
0
0
0
0
0
0
0
0
0
0
0
0
0
0
0
0
0
0
0
0
0
0
0
0
0
0
0
0
0
0
0
0
0
0
0
0
0
0
0
0
0
0
0
0
0
0
0
0
0
0
0
0
0
0
0
0
0
0
0
0
0
0
0
0
0
0
0
0
0
0
0
0
0
0
0
0
0
0
0
0
0
0
0
0
0
0
0
0
0
0
0
0
0
0
0
0
0
0
0
0
0
0
0
0
0
0
0
0
0
0
0
0
0
0
0
0
0
0
0
0
0
0
0
0
0
0
0
0
0
0
0
0
0
0
0
0
0
0
0
0
0
0
0
0
0
0
0
0
0
0
0
0
0
0
0
0
0
0
0
0
0
0
0
0
0
0
0
0
0
0
0
0
0
0
0
0
0
0
0
0
0
0
0
0
0
0
0
0
0
0
0
0
0
0
0
0
0
0
0
0
0
0
0
0
0
0
0
0
0
0
0
0
0
0
0
0
0
0
0
0
0
0
0
0
0
0
0
0
0
0
0
0
0
0
0
0
0
0
0
0
0
0
0
0
0
0
0
0
0
0
0
0
0
0
0
0
0
0
0
0
0
0
0
0
0
0
0
0
0
0
0
0
0
0
0
0
0
0
0
0
0
0
0
0
0
0
0
0
0
0
0
0
0
0
0
0
0
0
0
0
0
0
0
0
0
0
0
0
0
0
0
0
0
0
0
0
0
1.4184590227936e-50
6.8474214021738e-49
1.6398872126596e-47
2.5966734406305e-46
3.0577865694268e-45
2.8559338608009e-44
2.2036376215376e-43
1.4447060861101e-42
8.2144073265294e-42
4.1146641269117e-41
1.8382817733419e-40
7.3983895640884e-40
2.7044309240388e-39
9.0410233970485e-39
2.7803681927022e-38
7.9052209987094e-38
2.0871306051822e-37
5.1365430668944e-37
1.1823484707018e-36
2.5531556855405e-36
5.1860024716819e-36
9.9325270137828e-36
1.7976508466229e-35
3.0805466579015e-35
5.0073613499176e-35
7.7332674654649e-35
1.136434659272e-34
1.5913093306393e-34
2.1259233903697e-34
2.7129089028391e-34
3.3104788044644e-34
3.866814566422e-34
4.3274339018516e-34
4.6440956483586e-34
4.7831990147489e-34
4.7316368279135e-34
4.4986991993354e-34
4.1136940425357e-34
3.6200494887665e-34
3.0675041709164e-34
2.5042536238376e-34
1.9706672899054e-34
1.495530761993e-34
1.0950055778593e-34
7.7384838235628e-35
5.2805804876637e-35
3.4805703737187e-35
2.2167075548557e-35
1.3645574483544e-35
8.1213355013231e-36
4.6744770994962e-36
2.6026607939709e-36
1.4021090291163e-36
7.3100183135235e-37
3.6890337726946e-37
1.8023613221315e-37
8.526613036613e-38
3.9064301484536e-38
1.7334402850312e-38
7.4509702581827e-39
3.1026666795503e-39
1.2517352526504e-39
4.8930021774465e-40
1.8533093510709e-40
6.8021779202727e-41
2.4192864763159e-41
8.3381806523222e-42
2.7848338097111e-42
9.012897040136e-43
2.8265290971077e-43
8.5890873807302e-44
2.528828713933e-44
7.2133721162474e-45
1.9932650472408e-45
5.335242816793e-46
1.3831000255197e-46
3.4721951459265e-47
8.4399445505532e-48
1.9860330437015e-48
4.5233868392805e-49
9.9697115179456e-50
2.1259168510331e-50
4.3847982581041e-51
8.7453860159567e-52
1.6862100509596e-52
3.1420690302077e-53
5.6565204557762e-54
9.8346889078532e-55
1.650770933808e-55
2.6739545281e-56
4.9136599877975e-57
0
0
0
0
0
0
0
-1.3100655737029e-40
-5.6949012921559e-39
-1.2230681352657e-37
-1.7288674988015e-36
-1.8075893554167e-35
-1.4889378282952e-34
-1.0046251924842e-33
-5.6965623558198e-33
-2.7613427624569e-32
-1.156467004001e-31
-4.2035239430379e-31
-1.3219303246296e-30
-3.5385525583352e-30
-7.6801573995666e-30
-1.1349650695763e-29
1.325054878355e-30
8.9013987498554e-29
4.2211005075295e-28
1.422623965745e-27
4.0116418087056e-27
9.9893117102517e-27
2.2530905316282e-26
4.6705473218719e-26
8.9823881914243e-26
1.6133961088842e-25
2.7201756977857e-25
4.3220742543765e-25
6.4932079704307e-25
9.2495756786761e-25
1.2524282672597e-24
1.6155261754093e-24
1.9892134087236e-24
2.342412710762e-24
2.6424830158821e-24
2.8604222711796e-24
2.9755883423892e-24
2.9788523207526e-24
2.8735446046821e-24
2.6741522948491e-24
2.4032697894154e-24
2.0876351999955e-24
1.7541450195572e-24
1.426569113582e-24
1.1233884448056e-24
8.5685949807682e-25
6.331544308586e-25
4.532737098188e-25
3.1437926470666e-25
2.112279665568e-25
1.3746539053688e-25
8.6637581551131e-26
5.2870045634186e-26
3.123352009142e-26
1.7859095202805e-26
9.8820984958508e-27
5.2907854120534e-27
2.7403698658414e-27
1.3729663957313e-27
6.6530726613351e-28
3.1178249072535e-28
1.412889642598e-28
6.1909197805232e-29
2.6227573191019e-29
1.0741964116865e-29
4.2530314007563e-30
1.6276775273564e-30
6.0208330664142e-31
2.1524043974309e-31
7.4357894988596e-32
2.4820959846182e-32
8.0047066539312e-33
2.493726474898e-33
7.5034914476237e-34
2.1803018745086e-34
6.1168560073091e-35
1.6565695694449e-35
4.3297555407964e-36
1.0918986195717e-36
2.6561300633033e-37
6.2306951321051e-38
1.4089786748171e-38
3.0704464182303e-39
6.4455989654055e-40
1.3029008174457e-40
2.5348524274542e-41
4.7443687786766e-42
8.5381337451044e-43
1.476598572685e-43
2.4525261990537e-44
3.9095999327851e-45
5.9773878142308e-46
8.7582903262299e-47
1.4178945835634e-47
0
0
0
0
0
0
-5.8115548668884e-39
-2.6702625762381e-37
-6.0733560640847e-36
-9.1160662481283e-35
-1.0157588987087e-33
-8.9608518404338e-33
-6.5184933712919e-32
-4.0210982082672e-31
-2.1468961879056e-30
-1.0075968894672e-29
-4.207770836026e-29
-1.5788382129808e-28
-5.3652599538835e-28
-1.6620857744842e-27
-4.7193729243086e-27
-1.2337946361326e-26
-2.9808897689467e-26
-6.675771778319e-26
-1.3890649640475e-25
-2.6897891991999e-25
-4.851273919039e-25
-8.1485116950781e-25
-1.2727578390012e-24
-1.8421671593689e-24
-2.4534993076173e-24
-2.9658943190173e-24
-3.1610612185173e-24
-2.7581524688286e-24
-1.4543242996503e-24
1.0120698601102e-24
4.7877769406064e-24
9.8395069298016e-24
1.591794746907e-23
2.2566035256544e-23
2.9175255525084e-23
3.508013974217e-23
3.9669902827604e-23
4.2491134544276e-23
4.331817710268e-23
4.217707167328e-23
3.9321432820576e-23
3.5170287706359e-23
3.0225519142524e-23
2.4988527053512e-23
1.9892464870287e-23
1.5259775365318e-23
1.1287201312164e-23
8.0541547633382e-24
5.5465971402394e-24
3.6876705725769e-24
2.3676481952512e-24
1.4683252805485e-24
8.7973432067766e-25
5.0930229002242e-25
2.8494042645284e-25
1.5407667412675e-25
8.0531522206227e-26
4.06888639258e-26
1.9874379420842e-26
9.3851519203654e-27
4.2848338428295e-27
1.8913887665724e-27
8.0720700215716e-28
3.3307602381844e-28
1.3287612555651e-28
5.1248370663008e-29
1.9108230338373e-29
6.8871432901785e-30
2.3993847212813e-30
8.0790318849622e-31
2.6288533424922e-31
8.2653651925164e-32
2.5106099112281e-32
7.3661789319617e-33
2.0872120984661e-33
5.7102933300566e-34
1.5080451591473e-34
3.8434467920484e-35
9.450481772243e-36
2.2411888642323e-36
5.1244544389123e-37
1.1292821451025e-37
2.3975680279352e-38
4.9019326034323e-39
9.6469788550167e-40
1.8265309348413e-40
3.3253851527639e-41
5.8181615733557e-42
9.7766267957912e-43
1.5767455141062e-43
2.43888315788e-44
3.6152676363304e-45
5.1315289710642e-46
7.9994540096465e-47
0
0
0
0
0
1.9293310443908e-40
-1.2318667683845e-37
-5.7785726871674e-36
-1.310984579475e-34
-1.9526648247317e-33
-2.1555921549217e-32
-1.8832906934281e-31
-1.3570142415072e-30
-8.2958296228496e-30
-4.3923652263021e-29
-2.0460039100699e-28
-8.4883579348303e-28
-3.1676936466491e-27
-1.0719712961829e-26
-3.3118485710533e-26
-9.3943785554021e-26
-2.4584728199937e-25
-5.959961021064e-25
-1.3431378137324e-24
-2.8221812925228e-24
-5.5426059132197e-24
-1.0194924246272e-23
-1.7590046647077e-23
-2.8497979878211e-23
-4.337291637507e-23
-6.1993832812671e-23
-8.3104624584446e-23
-1.0418478346912e-22
-1.2149364471328e-22
-1.3048743232044e-22
-1.2660774890529e-22
-1.0630876062916e-22
-6.8075375531135e-23
-1.3136579484194e-23
5.4372840997007e-23
1.279088643537e-22
1.9959221228427e-22
2.6160853292444e-22
3.0759004220908e-22
3.3364769102677e-22
3.3883472241752e-22
3.2498907649958e-22
2.9606560780219e-22
2.5717967205596e-22
2.1361617405244e-22
1.700169556095e-22
1.2987126595837e-22
9.5334605387179e-23
6.7321023811148e-23
4.5769777545604e-23
2.998047269128e-23
1.8931507366308e-23
1.1530177741901e-23
6.7760509678097e-24
3.8438544631184e-24
2.1054477924357e-24
1.113852725881e-24
5.6927003787242e-25
2.8112684706476e-25
1.3416890547565e-25
6.1890788402233e-26
2.7597606562755e-26
1.1896604587462e-26
4.9579770566978e-27
1.9976926718023e-27
7.7821172179667e-28
2.9309185718337e-28
1.0671575183169e-28
3.7561601034113e-29
1.2779465304757e-29
4.2022978345951e-30
1.3353939751118e-30
4.100281129128e-31
1.2162502769113e-31
3.484584134688e-32
9.6405361262851e-33
2.5749387845168e-33
6.6379015614228e-34
1.6510667635875e-34
3.9612184026446e-35
9.1637201824834e-36
2.0432893753357e-36
4.3896112872446e-37
9.0817536724674e-38
1.8086544269556e-38
3.4654764639068e-39
6.3849061477576e-40
1.1305123762761e-40
1.9224337993498e-41
3.1375328766368e-42
4.9109939360226e-43
7.3663795485132e-44
1.0579753270679e-44
1.4535777964332e-45
2.1800943557679e-46
0
0
0
0
0
4.5127518096317e-39
-1.2820497646821e-36
-6.200589008425e-35
-1.409641997634e-33
-2.0906061041892e-32
-2.2927996767815e-31
-1.9883068763863e-30
-1.4216179629043e-29
-8.6235089895427e-29
-4.5311774111728e-28
-2.0951263620418e-27
-8.6306905657606e-27
-3.1990877288648e-26
-1.0756790394721e-25
-3.3033446595001e-25
-9.3178568192322e-25
-2.4259139842083e-24
-5.853759018606e-24
-1.3138394472227e-23
-2.7512232128092e-23
-5.3891234723413e-23
-9.8962860685244e-23
-1.7067458540837e-22
-2.7683109491785e-22
-4.2269877038466e-22
-6.0788909393276e-22
-8.232625742434e-22
-1.0489739447643e-21
-1.254838171874e-21
-1.4037767774271e-21
-1.4582307343154e-21
-1.3883522746145e-21
-1.1799211179019e-21
-8.3966429181739e-22
-3.9618285974105e-22
1.041191403186e-22
6.0525028456654e-22
1.0519316755244e-21
1.399381910485e-21
1.6202695353312e-21
1.7074648503364e-21
1.6724681449844e-21
1.5405051304407e-21
1.3439419322496e-21
1.1157631496683e-21
8.844643506992e-22
6.7105552840374e-22
4.8820442602747e-22
3.4105792273296e-22
2.2904975501819e-22
1.4801538294893e-22
9.2106523097238e-23
5.5227934160439e-23
3.192632741912e-23
1.7801818279711e-23
9.5781330797063e-24
4.9745165543596e-24
2.4946310752124e-24
1.2082610706017e-24
5.6534167074922e-25
2.5558655660265e-25
1.1166265065566e-25
4.7149012117313e-26
1.9242876936411e-26
7.5914498847127e-27
2.8949981809424e-27
1.067184419588e-27
3.8026347520358e-28
1.3096579895752e-28
4.3593489341535e-29
1.4022533026512e-29
4.3582446354755e-30
1.3085939376988e-30
3.7950981510287e-31
1.0628484850644e-31
2.8737176952852e-32
7.4993566563779e-33
1.8883488458106e-33
4.5864641090532e-34
1.0741335240356e-34
2.424695583486e-35
5.2734604714102e-36
1.1045376973928e-36
2.2269161153983e-37
4.3195858043288e-38
8.0566616912975e-39
1.4440592847694e-39
2.4857352607067e-40
4.1064571625638e-41
6.5058316172977e-42
9.8768397642286e-43
1.4356327669119e-43
1.9960935429142e-44
2.6521699186787e-45
3.8232757287236e-46
0
0
0
0
1.8894471359086e-50
5.2610370200045e-38
-8.7003991164087e-36
-4.3811639257365e-34
-1.0006818487549e-32
-1.4797945060115e-31
-1.6138229519415e-30
-1.3900269385804e-29
-9.8660301467049e-29
-5.9397396568899e-28
-3.0973510719869e-27
-1.4213180087408e-26
-5.8109645736579e-26
-2.1378321206408e-25
-7.135015508581e-25
-2.1749268415468e-24
-6.0896467760454e-24
-1.5737566794245e-23
-3.7694752239378e-23
-8.3979192664947e-23
-1.7456082696695e-22
-3.3943549140795e-22
-6.1885266585912e-22
-1.0599014745678e-21
-1.7079249988732e-21
-2.592490876635e-21
-3.7098642289324e-21
-5.0064942305741e-21
-6.369813018558e-21
-7.6324464134096e-21
-8.5931067874831e-21
-9.0524313541001e-21
-8.856446643343e-21
-7.9363806691719e-21
-6.3330496727009e-21
-4.1976109710935e-21
-1.7670802603909e-21
6.7960803776872e-22
2.8736634988211e-21
4.6034354567649e-21
5.7454328473802e-21
6.273800182824e-21
6.2490313123373e-21
5.791911451458e-21
5.0513045689351e-21
4.1741238926381e-21
3.2833388481844e-21
2.4664415797415e-21
1.7736664773418e-21
1.2232359189662e-21
8.1021944298101e-22
5.1598926678278e-22
3.1624397951099e-22
1.866698952184e-22
1.061862012031e-22
5.8241290563945e-23
3.0814471187667e-23
1.5732643129248e-23
7.7537135794354e-24
3.6897395592079e-24
1.6957348136044e-24
7.5279764341597e-25
3.2286671280838e-25
1.3379667511943e-25
5.3577571996875e-26
2.0732979417366e-26
7.7534258547311e-27
2.8020644937637e-27
9.7859209324745e-28
3.3024644898123e-28
1.0768337000231e-28
3.3922022792923e-29
1.0322231293694e-29
3.033527187404e-30
8.6082727916794e-31
2.3581801919947e-31
6.2347264040571e-32
1.5904182517689e-32
3.9130933834929e-33
9.2830855556525e-34
2.1225736094523e-34
4.6757637275614e-35
9.919012140201e-36
2.0253584098077e-36
3.9785840396518e-37
7.514620582016e-38
1.3638863342374e-38
2.3771874633851e-39
3.9761591910426e-40
6.3776097347077e-41
9.8016846733788e-42
1.4421844773887e-42
2.0296373635193e-43
2.7293716680319e-44
3.5033879517891e-45
4.8488125235071e-46
0
0
0
0
4.6271275217661e-49
4.0746395930866e-37
-4.3066324722839e-35
-2.2882573513743e-33
-5.2654048062105e-32
-7.7731141636796e-31
-8.4351946275458e-30
-7.2190158089941e-29
-5.0874600927267e-28
-3.0399528676562e-27
-1.5730431474115e-26
-7.1620268580875e-26
-2.9049804168616e-25
-1.0601670158684e-24
-3.5095339550411e-24
-1.0609398074599e-23
-2.9454851345857e-23
-7.5463956404522e-23
-1.7915739566866e-22
-3.9554395159237e-22
-8.1464448563915e-22
-1.5693829061486e-21
-2.8346387765879e-21
-4.8101102107854e-21
-7.6815148494551e-21
-1.1560642993027e-20
-1.6414158088657e-20
-2.2000774435526e-20
-2.7841907001337e-20
-3.3247901813489e-20
-3.7409161915918e-20
-3.9541730905298e-20
-3.905666198664e-20
-3.5709499077659e-20
-2.9686249237745e-20
-2.1596770830092e-20
-1.2371715512375e-20
-3.0870231901112e-21
5.2390049947003e-21
1.1824219978126e-20
1.6234535937498e-20
1.8409201911185e-20
1.8605549766491e-20
1.7290150605548e-20
1.5012541425258e-20
1.2294338417621e-20
9.5544238971353e-21
7.0760541793235e-21
5.0096150353543e-21
3.3982419810997e-21
2.212692629602e-21
1.3848917031966e-21
8.3410485066393e-22
4.8385682187495e-22
2.7052392804471e-22
1.4585606299906e-22
7.5868231565279e-23
3.808542413223e-23
1.8455948790789e-23
8.6354245211921e-24
3.9018687095366e-24
1.7027855721224e-24
7.1777739478621e-25
2.92277464415e-25
1.1497403166865e-25
4.3693449653228e-26
1.6041622064264e-26
5.6896869667761e-27
1.9494783162223e-27
6.4522125581276e-28
2.0626113983477e-28
6.3678158769704e-29
1.8982832652464e-29
5.4632250331418e-30
1.517615121485e-30
4.0681062901703e-31
1.052013105467e-31
2.6237030242773e-32
6.3084900481092e-33
1.46181270455e-33
3.2631522567702e-34
7.0140823825682e-35
1.4510594316463e-35
2.8877313283721e-36
5.5251581880924e-37
1.0157568451844e-37
1.7931357153415e-38
3.0374933074845e-39
4.933717513214e-40
7.6779251193459e-41
1.1438044647068e-41
1.6296607004661e-42
2.2184418767955e-43
2.8822923905686e-44
3.5699562424523e-45
4.7378435841805e-46
0
0
0
0
5.6124744487895e-48
2.3576458165028e-36
-1.643937195389e-34
-9.4021703505604e-33
-2.1871203827306e-31
-3.2275837254989e-30
-3.4875131936626e-29
-2.9666655086392e-28
-2.0761771622781e-27
-1.2313379741999e-26
-6.3220200404635e-26
-2.855309295847e-25
-1.1486156561915e-24
-4.1565586086055e-24
-1.3640964508414e-23
-4.0871579184158e-23
-1.1243797116654e-22
-2.8536855831872e-22
-6.7095964608751e-22
-1.4667072465402e-21
-2.9902794229561e-21
-5.701655947791e-21
-1.0192170242407e-20
-1.7117195582994e-20
-2.7057971797517e-20
-4.031988798132e-20
-5.6705413145489e-20
-7.5328728511042e-20
-9.4551254424257e-20
-1.1210117267175e-19
-1.253943928267e-19
-1.3201106563083e-19
-1.3022242649033e-19
-1.1943045252874e-19
-1.0039217892352e-19
-7.5151781026692e-20
-4.6682298783759e-20
-1.83209532604e-20
6.8590081258026e-21
2.6581139265011e-20
3.9677876979286e-20
4.6127549863452e-20
4.6844838342528e-20
4.3317883863467e-20
3.7210964350842e-20
3.0035393520536e-20
2.2947014157445e-20
1.6678277801953e-20
1.1575200142415e-20
7.6930097789634e-21
4.9070422892384e-21
3.0092262129781e-21
1.7765932293966e-21
1.0108012179522e-21
5.5464891639608e-22
2.9368397288523e-22
1.5011071559271e-22
7.4082394168009e-23
3.5306233482434e-23
1.6250023625379e-23
7.22334374561e-24
3.1010544336358e-24
1.2857806868836e-24
5.1488155465528e-25
1.9912461020917e-25
7.4372299871746e-26
2.6825860995469e-26
9.34402961895e-27
3.1428766118838e-27
1.0207008820068e-27
3.2003876496416e-28
9.686854020808e-29
2.8298890743345e-29
7.9777337017808e-30
2.1697822117219e-30
5.6920397360479e-31
1.4398223822857e-31
3.5107368744295e-32
8.2485945763975e-33
1.8667337296616e-33
4.0674104045584e-34
8.5286992140208e-35
1.7201076379777e-35
3.3350119214307e-36
6.2122676360157e-37
1.1110562161976e-37
1.9065838069071e-38
3.1368080000411e-39
4.9440848477771e-40
7.4589419727772e-41
1.0761197809313e-41
1.483212985785e-42
1.9509181011479e-43
2.4460332892261e-44
2.9196220773324e-45
3.7103394234067e-46
0
0
0
0
4.496311789278e-47
1.0866195411443e-35
-4.9658187216405e-34
-3.1568367315202e-32
-7.458074018838e-31
-1.1020668948631e-29
-1.1866931714632e-28
-1.0037939112519e-27
-6.9774998923137e-27
-4.1075430827045e-26
-2.0923852850121e-25
-9.3730978381734e-25
-3.7388477146739e-24
-1.3413136702315e-23
-4.3629422857925e-23
-1.2953862777087e-22
-3.5305321996071e-22
-8.875432679785e-22
-2.0665494085973e-21
-4.4727355159221e-21
-9.0269745658153e-21
-1.7035616416003e-20
-3.0135482144345e-20
-5.0075276571831e-20
-7.8302774461894e-20
-1.1539324414789e-19
-1.6044190092053e-19
-2.1061855076923e-19
-2.6110399570156e-19
-3.0556367588055e-19
-3.371642527862e-19
-3.4994588177266e-19
-3.4020256346591e-19
-3.0747160198947e-19
-2.5482570475577e-19
-1.8836668410891e-19
-1.1605564231942e-19
-4.6192468350911e-20
1.4073820522544e-20
5.9864807808433e-20
8.9106837126171e-20
1.0242800373857e-19
1.0252909344683e-19
9.3258843289336e-20
7.866589620014e-20
6.2255395850702e-20
4.6571837367246e-20
3.3109240289428e-20
2.2460957077958e-20
1.4587221251497e-20
9.0933579569697e-21
5.4525560522261e-21
3.1500332650761e-21
1.7554977676661e-21
9.4454356083017e-22
4.9091486720507e-22
2.4652802062326e-22
1.1962797241191e-22
5.6089418750156e-23
2.5407102440638e-23
1.1116981340449e-23
4.6979410065457e-24
1.9171483630816e-24
7.5540522431176e-25
2.8736828169639e-25
1.0553545681366e-25
3.7413566481093e-26
1.2802712335499e-26
4.2284866567767e-27
1.3478440142519e-27
4.1458969237201e-28
1.2304466647414e-28
3.5229040915524e-29
9.7285198272165e-30
2.5905971010153e-30
6.6503400486205e-31
1.6453052275563e-31
3.921563608299e-32
9.0015467224687e-33
1.9890151379498e-33
4.2288540507674e-34
8.6467638545639e-35
1.6993967326684e-35
3.2084164161567e-36
5.8152104483095e-37
1.0111630217573e-37
1.6855325012912e-38
2.6913347496245e-39
4.1128295934893e-40
6.0097309033103e-41
8.3883801707421e-42
1.1172309374254e-42
1.4182232862248e-43
1.7137049948135e-44
1.968445642138e-45
2.3917504560779e-46
0
0
0
0
2.6768658536185e-46
4.1533970440741e-35
-1.186041366034e-33
-8.8740040160761e-32
-2.1430985819528e-30
-3.1781198733183e-29
-3.4138947996327e-28
-2.8730946780051e-27
-1.98421938625e-26
-1.1595707401689e-25
-5.8607302188315e-25
-2.6039419597853e-24
-1.0299456168745e-23
-3.6631984936119e-23
-1.1811833922609e-22
-3.4763521528463e-22
-9.3918110592664e-22
-2.3404141495536e-21
-5.4019716314963e-21
-1.158985326803e-20
-2.3185068660578e-20
-4.33608566475e-20
-7.5986009046011e-20
-1.2501044466061e-19
-1.933807698959e-19
-2.8161520486456e-19
-3.8639460715178e-19
-4.9970504271498e-19
-6.0908409328422e-19
-6.9929649289172e-19
-7.552987848974e-19
-7.6577997493526e-19
-7.26148645404e-19
-6.398690498338e-19
-5.1763609717029e-19
-3.7476832057314e-19
-2.2787239903128e-19
-9.189551716124e-20
2.180943193611e-20
1.0638083319889e-19
1.595763199677e-19
1.8334210261201e-19
1.8288758432971e-19
1.6533887354968e-19
1.3820764502797e-19
1.0804337278663e-19
7.9590234066246e-20
5.5563875164754e-20
3.6933806904927e-20
2.3468434639362e-20
1.4303835944578e-20
8.3861248958598e-21
4.7400525091996e-21
2.5871755027083e-21
1.3650372895079e-21
6.9658191407609e-22
3.4384769628999e-22
1.64157147634e-22
7.5772785001747e-23
3.3802967361642e-23
1.456839132727e-23
6.063567270255e-24
2.436552857752e-24
9.4504834334138e-25
3.5374278299572e-25
1.2776769696564e-25
4.4525838114753e-26
1.4970105262297e-26
4.8553891023705e-27
1.5190424830855e-27
4.5836800251518e-28
1.3338206764343e-28
3.7423632986179e-29
1.012211135935e-29
2.6385661684662e-30
6.6269652475977e-31
1.6031418456546e-31
3.7340726786026e-32
8.3708989672846e-33
1.8052879789821e-33
3.743635779246e-34
7.4607341802183e-35
1.4280991451382e-35
2.6239209625301e-36
4.6244836864105e-37
7.8122618198329e-38
1.2640001611596e-38
1.9570550534584e-39
2.8969710682838e-40
4.0957971483289e-41
5.5248340953483e-42
7.1020194100809e-43
8.6891933086977e-44
1.0104582235088e-44
1.1151990918461e-45
1.2933615129941e-46
0
0
0
0
1.2631433029653e-45
1.3535038378897e-34
-2.1335369838319e-33
-2.1199292572014e-31
-5.2833200218316e-30
-7.8868863193248e-29
-8.4634154154453e-28
-7.0919374940759e-27
-4.868243153599e-26
-2.8249450489367e-25
-1.4168551561533e-24
-6.2445887268932e-24
-2.449666346446e-23
-8.6411308935918e-23
-2.7638521379043e-22
-8.0712835267045e-22
-2.1645619142389e-21
-5.3568988703433e-21
-1.2284313093093e-20
-2.6191925888041e-20
-5.2070596328668e-20
-9.6746055779613e-20
-1.6830837906833e-19
-2.7457680795354e-19
-4.2055318814468e-19
-6.0528534728262e-19
-8.1909546320633e-19
-1.042476590829e-18
-1.2478569378184e-18
-1.4046862348363e-18
-1.4869216304501e-18
-1.4804238714968e-18
-1.3870108433339e-18
-1.2229852489109e-18
-1.0127884996082e-18
-7.8127421387214e-19
-5.4864865199474e-19
-3.2977656839286e-19
-1.3623320223735e-19
2.204024929796e-20
1.3735891567168e-19
2.0654381857826e-19
2.3265405569821e-19
2.2456924480883e-19
1.944524122895e-19
1.5443523143324e-19
1.1402956079965e-19
7.9034012638257e-20
5.1814058314207e-20
3.2335135579557e-20
1.9311161266221e-20
1.1085026580013e-20
6.1363520826774e-21
3.2835102008393e-21
1.7006541837541e-21
8.5307126481176e-22
4.1440208432181e-22
1.9486284235083e-22
8.8638492268935e-23
3.8975883147439e-23
1.6556381486759e-23
6.790327987824e-24
2.6877191236157e-24
1.0263750223442e-24
3.7805915516873e-25
1.3430063850956e-25
4.6005974885788e-26
1.5196089949608e-26
4.8394588952827e-27
1.4858355182341e-27
4.3975029724154e-28
1.2544194873565e-28
3.4483016788571e-29
9.1327433555264e-30
2.3298107548065e-30
5.7231453280353e-31
1.35330618046e-31
3.079198738005e-32
6.7386578556713e-33
1.4177409392756e-33
2.8660350114146e-34
5.5639027831933e-35
1.036624380818e-35
1.8523142213893e-36
3.1720690226447e-37
5.2019127468531e-38
8.1621827625358e-39
1.2242588733006e-39
1.7536093425334e-40
2.396178817438e-41
3.119811216084e-42
3.8655727599679e-43
4.5517946302093e-44
5.0861493222986e-45
5.3842915623223e-46
5.9493397628979e-47
0
0
0
0
4.9209191852097e-45
3.8366263973873e-34
-2.265896166525e-33
-4.3336709425868e-31
-1.130950452773e-29
-1.7067863652686e-28
-1.8332299869104e-27
-1.5311051815245e-26
-1.0453111813829e-25
-6.0253940481008e-25
-2.9998183771496e-24
-1.3119411249496e-23
-5.1067180011814e-23
-1.7879267394083e-22
-5.6792565397462e-22
-1.6484812193943e-21
-4.3985875003682e-21
-1.0841729266259e-20
-2.478220678283e-20
-5.2694568567467e-20
-1.0446998887798e-19
-1.9345959849445e-19
-3.3509573397725e-19
-5.4354416951158e-19
-8.2648992184732e-19
-1.1791679720838e-18
-1.5797646410708e-18
-1.9889649345977e-18
-2.3561887147766e-18
-2.6328438161277e-18
-2.7880135098872e-18
-2.8171207915815e-18
-2.735854898086e-18
-2.5628839763119e-18
-2.3065140281902e-18
-1.9681895825712e-18
-1.5590091852493e-18
-1.1119203542991e-18
-6.7698088901505e-19
-3.036186933608e-19
-2.3812106753659e-20
1.5410071686437e-19
2.4134703538183e-19
2.6018553838416e-19
2.3580263952931e-19
1.9059797905317e-19
1.4108670834175e-19
9.7120404121043e-20
6.2846914446225e-20
3.8560948706215e-20
2.2595312075157e-20
1.2718548342509e-20
6.9077011387356e-21
3.6307501008022e-21
1.8497583804513e-21
9.138626520567e-22
4.3765523192128e-22
2.0300274714295e-22
9.1105339397034e-23
3.9520190526091e-23
1.655565352699e-23
6.6930274195647e-24
2.6098976602027e-24
9.8128012371241e-25
3.5565476344235e-25
1.2424113737037e-25
4.1827469589405e-26
1.357020458544e-26
4.2423887030765e-27
1.2779048218304e-27
3.7085497091564e-28
1.0367307464593e-28
2.7912943455748e-29
7.2364546926592e-30
1.8059667829764e-30
4.3373090914755e-31
1.0020750232474e-31
2.2262359189081e-32
4.7537248747699e-33
9.7514283467429e-34
1.9205748440417e-34
3.6295924093493e-35
6.5774766060848e-36
1.1421471567463e-36
1.898918929636e-37
3.0202637521489e-38
4.591346096955e-39
6.6644191390269e-40
9.2267133782867e-41
1.2170016583104e-41
1.5273879512158e-42
1.8215003990026e-43
2.06103859492e-44
2.2091043919405e-45
2.2389759517928e-46
2.3522430279314e-47
0
0
0
0
1.6279253829023e-44
9.6037801341847e-34
1.797812416027e-33
-7.561010594015e-31
-2.1168499069735e-29
-3.2501636264283e-28
-3.5036676989463e-27
-2.9208602826019e-26
-1.9850316359056e-25
-1.1372938542323e-24
-5.6233555075338e-24
-2.441720097479e-23
-9.4379724483499e-23
-3.2834406873716e-22
-1.0375416966172e-21
-3.0004297929084e-21
-7.9894448662014e-21
-1.9681862867771e-20
-4.5013483423879e-20
-9.5805312913307e-20
-1.9007139536288e-19
-3.5193014788227e-19
-6.088446450979e-19
-9.8541760764303e-19
-1.4942226240488e-18
-2.1257465838949e-18
-2.8409751487659e-18
-3.5714058612679e-18
-4.2309348071197e-18
-4.7385534570122e-18
-5.0429597553018e-18
-5.138308170227e-18
-5.0616737718859e-18
-4.8645933174961e-18
-4.5682007679837e-18
-4.1408836443698e-18
-3.5333674183115e-18
-2.7489769531625e-18
-1.8797108704202e-18
-1.0688265403979e-18
-4.3509154664621e-19
-2.3694576415075e-20
1.8940997851776e-19
2.6214487228672e-19
2.5352997311896e-19
2.0804559014989e-19
1.535113430908e-19
1.0449242855625e-19
6.6588216601575e-20
4.0150692510746e-20
2.3105090307511e-20
1.2778058075201e-20
6.8266907876609e-21
3.5347481192993e-21
1.7764368401221e-21
8.6658884416723e-22
4.0999702110012e-22
1.8788503878052e-22
8.3281655118301e-23
3.5662458216863e-23
1.4738007614552e-23
5.8735886261928e-24
2.2561983818889e-24
8.3504939313987e-25
2.9772745795216e-25
1.0224607722558e-25
3.3819423929185e-26
1.0773491061603e-26
3.3051747027108e-27
9.7644538609369e-28
2.7776067530427e-28
7.6067483417056e-29
2.0051622677652e-29
5.0864895693113e-30
1.2413079750575e-30
2.9133090130805e-31
6.5730979239734e-32
1.4250790740526e-32
2.9674229375583e-33
5.9313695769022e-34
1.137379726986e-34
2.0909638052494e-35
3.6827162171909e-36
6.209178623729e-37
1.0013348720519e-37
1.5431519161747e-38
2.2703586561693e-39
3.185471073456e-40
4.2574017917582e-41
5.4133148867627e-42
6.539408714621e-43
7.4942234084555e-44
8.1343975000522e-45
8.3476876725892e-46
8.083617179981e-47
8.0569433013122e-48
0
0
0
0
4.6682908422466e-44
2.1480351658362e-33
1.7448374434787e-32
-1.1045983632546e-30
-3.4702143540422e-29
-5.4740880768536e-28
-5.9462506599502e-27
-4.958375309998e-26
-3.3586710439969e-25
-1.9143879338178e-24
-9.4080553529245e-24
-4.059211226359e-23
-1.5597455175636e-22
-5.4003421558559e-22
-1.7012750965971e-21
-4.9154865785169e-21
-1.3105857927164e-20
-3.2385456291196e-20
-7.4367239607327e-20
-1.589251634634e-19
-3.1634320914124e-19
-5.8707168217806e-19
-1.017401705454e-18
-1.6506696275866e-18
-2.5149455680272e-18
-3.6082759535518e-18
-4.8829290166866e-18
-6.2853980496019e-18
-7.9216702297579e-18
-1.0096403758339e-17
-1.2792067056543e-17
-1.5016924492441e-17
-1.5197082784285e-17
-1.2659604928722e-17
-8.422726211222e-18
-4.3309564805045e-18
-1.6578287591972e-18
-5.001567355061e-19
-1.9668212926822e-19
-1.026634705932e-19
3.1653346041391e-20
1.7968372815248e-19
2.7199105728896e-19
2.918832965001e-19
2.6063691359929e-19
2.0603656533091e-19
1.4846018154867e-19
9.9109949159274e-20
6.2021674459204e-20
3.675137191712e-20
2.0807410449279e-20
1.1339907817561e-20
5.9808154609105e-21
3.0617818624803e-21
1.5228469359813e-21
7.3546482236871e-22
3.4441491717819e-22
1.5612849524664e-22
6.8401023744393e-23
2.8922730362087e-23
1.1791515729178e-23
4.6317422437767e-24
1.7521209122777e-24
6.3813289253178e-25
2.2372964066507e-25
7.5504444660495e-26
2.4527038994145e-26
7.6688625215086e-27
2.3078776771975e-27
6.6843635228944e-28
1.8630503677138e-28
4.9961784383747e-29
1.2888721055441e-29
3.1976236243333e-30
7.6270144737567e-31
1.7483660579133e-31
3.8501552908299e-32
8.1411578757122e-33
1.6520616218446e-33
3.2154675543598e-34
5.9987450836403e-35
1.0719376809073e-35
1.8333216510021e-36
2.9985140547551e-37
4.6857529115224e-38
6.9892919591986e-39
9.9404599738072e-40
1.3464785643194e-40
1.7348806652168e-41
2.1233783422861e-42
2.4650786010186e-43
2.710061618843e-44
2.8164769938491e-45
2.7616697913833e-46
2.5494898788459e-47
2.4050128341392e-48
0
0
0
0
1.1787926330123e-43
4.33309804254e-33
5.7290020419456e-32
-1.2707507831247e-30
-4.9532276331578e-29
-8.1609643525049e-28
-8.9880912483749e-27
-7.5202171311316e-26
-5.0868963322764e-25
-2.8883866787037e-24
-1.4124312745882e-23
-6.0627489510039e-23
-2.3192994033474e-22
-8.0076149833656e-22
-2.5214907351804e-21
-7.301610764787e-21
-1.9559095089747e-20
-4.8636686065066e-20
-1.124382980481e-19
-2.4174528025109e-19
-4.8351188436713e-19
-9.0069776441661e-19
-1.5675594123313e-18
-2.5621168983746e-18
-3.9551447270625e-18
-5.7844050524889e-18
-8.0058390644692e-18
-1.0639909256547e-17
-1.4310935892901e-17
-2.0198503678462e-17
-2.7609140004433e-17
-3.1366313020854e-17
-2.6780794472251e-17
-1.8515640204324e-17
-1.3856131985364e-17
-1.051457938487e-17
-1.06204695824e-17
-8.9934545190417e-18
-5.9376701842407e-18
-2.9211466072026e-18
-9.2745171501296e-19
-3.5018150564418e-20
2.4114108300749e-19
2.7503283646707e-19
2.3580661213568e-19
1.801157106868e-19
1.2667372838348e-19
8.2927786319752e-20
5.1008182285763e-20
2.9771306552018e-20
1.6642065004602e-20
8.9762041721798e-21
4.694084827224e-21
2.3852135635282e-21
1.1777199529434e-21
5.6433046686728e-22
2.6193012788224e-22
1.175340724269e-22
5.0903626664818e-23
2.1251283953947e-23
8.544413601219e-24
3.3066488948572e-24
1.2312785564045e-24
4.4107632624543e-25
1.5199615207388e-25
5.0385856152713e-26
1.6067375018619e-26
4.9287868854367e-27
1.4543872906079e-27
4.1279398851497e-28