/*--------------------------------*- C++ -*----------------------------------*\
  =========                 |
  \\      /  F ield         | OpenFOAM: The Open Source CFD Toolbox
   \\    /   O peration     | Website:  https://openfoam.org
    \\  /    A nd           | Version:  7
     \\/     M anipulation  |
\*---------------------------------------------------------------------------*/
FoamFile
{
    version     2.0;
    format      ascii;
    class       volScalarField;
    location    "2.4";
    object      alpha.water;
}
// * * * * * * * * * * * * * * * * * * * * * * * * * * * * * * * * * * * * * //

dimensions      [0 0 0 0 0 0 0];

internalField   nonuniform List<scalar> 
6000
(
0
0
0
0
0
0
0
0
0
0
0
0
0
0
0
0
0
0
0
0
0
0
0
0
0
0
0
0
0
0
0
0
0
0
0
0
0
0
0
0
0
0
0
0
0
0
0
0
0
0
0
0
0
0
0
0
0
0
0
0
0
0
0
0
0
0
0
0
0
0
0
0
0
0
0
0
0
0
0
0
0
0
0
0
0
0
0
0
0
0
0
0
0
0
0
0
0
0
0
0
0
0
0
0
0
0
0
0
0
0
0
0
0
0
0
0
0
0
0
0
0
0
0
0
0
0
0
0
0
0
0
0
0
0
0
0
0
0
0
0
0
0
0
0
0
0
0
0
0
0
0
0
0
0
0
0
0
0
0
0
0
0
0
0
0
0
0
0
0
0
0
0
0
0
0
0
0
0
0
0
0
0
0
0
0
0
0
0
0
0
0
0
0
0
0
0
0
0
0
0
0
0
0
0
0
0
0
0
0
0
0
0
0
0
0
0
0
0
0
0
0
0
0
0
0
0
0
0
0
0
0
0
0
0
0
0
0
0
0
0
0
0
0
0
0
0
0
0
0
0
0
0
0
0
0
0
0
0
0
0
0
0
0
0
0
0
0
0
0
0
0
0
0
0
0
0
0
0
0
0
0
0
0
0
0
0
0
0
0
0
0
0
0
0
0
0
0
0
0
0
0
0
0
0
0
0
0
0
0
0
0
0
0
0
0
0
0
0
0
0
0
0
0
0
0
0
0
0
0
0
0
0
0
0
0
0
0
0
0
0
0
0
0
0
0
0
0
0
0
0
0
0
0
0
0
0
0
0
0
0
0
0
0
0
0
0
0
0
0
0
0
0
0
0
0
0
0
0
0
0
0
0
0
0
0
0
0
0
0
0
0
0
0
0
0
0
0
0
0
0
0
0
0
0
0
0
0
0
0
2.8471802898719e-65
2.1996033664082e-63
8.4308197771534e-62
2.1437812029605e-60
4.067642356689e-59
6.1426673603535e-58
7.6884983026487e-57
8.2046102565073e-56
7.6197388917724e-55
6.2562543395986e-54
4.5978721508647e-53
3.0550974292342e-52
1.8505387126459e-51
1.0289556830884e-50
5.2830154872494e-50
2.5174428026791e-49
1.1182783347039e-48
4.6487854423456e-48
1.8147596059344e-47
6.6729323852117e-47
2.3175149553981e-46
7.6209513511614e-46
2.3781982944588e-45
7.0570405655799e-45
1.9949859327845e-44
5.381946900829e-44
1.387720207075e-43
3.4249572644279e-43
8.1017707530158e-43
1.8391434648179e-42
4.0110969082078e-42
8.4137595378015e-42
1.6991540348495e-41
3.3067380709512e-41
6.2068924725041e-41
1.1246456946617e-40
1.9686244341945e-40
3.3314589261518e-40
5.454203980258e-40
8.6444592296969e-40
1.3271583117569e-39
1.9748787271974e-39
2.8499176162556e-39
3.9904994000884e-39
5.4242858340005e-39
7.1611893454036e-39
9.1865307146599e-39
1.1455886682036e-38
1.389297640864e-38
1.6391591741213e-38
1.8822121277191e-38
2.1042265372281e-38
2.2910816365058e-38
2.4302682044631e-38
2.5122815820914e-38
2.5316983891147e-38
2.4877620874314e-38
2.3843880440633e-38
2.2296125795819e-38
2.0345787905229e-38
1.8122406815426e-38
1.5759878287911e-38
1.3383827548167e-38
1.1101698021015e-38
8.9963698759677e-39
7.1235657213703e-39
5.5126411083587e-39
4.1699477334681e-39
3.0837807652703e-39
2.2299151719666e-39
1.5769295704925e-39
1.0907353931125e-39
7.3802495507273e-40
4.885686778455e-40
3.1647470322408e-40
2.0061553007796e-40
1.2446666554516e-40
7.558801272357e-41
4.4937632671478e-41
2.6155833795219e-41
1.4906291388589e-41
8.3186460745198e-42
4.5462664425285e-42
2.4333882011196e-42
1.2757201916099e-42
6.5511562390836e-43
3.2955531215957e-43
1.6241035064503e-43
7.8415044045358e-44
3.7094456223084e-44
3.1097029958895e-44
0
0
0
0
0
0
0
-2.634233588522e-55
-1.903769912858e-53
-6.834517021492e-52
-1.6247656973247e-50
-2.8768695042979e-49
-4.0458875544556e-48
-4.7062078743092e-47
-4.6555946352604e-46
-3.9967101983189e-45
-3.0233035514444e-44
-2.0391753020301e-43
-1.2378831287114e-42
-6.8137335981293e-42
-3.4208045055397e-41
-1.5735803781161e-40
-6.6544121923099e-40
-2.5922675970194e-39
-9.3077785587378e-39
-3.0761098814314e-38
-9.31619888247e-38
-2.5606635197944e-37
-6.2570063058322e-37
-1.2939104412429e-36
-1.9316964093625e-36
-1.9364598806848e-37
1.3359714121263e-35
6.942782315293e-35
2.5573609893146e-34
8.0008193773712e-34
2.2492864612651e-33
5.8289889691701e-33
1.4120660451794e-32
3.2255429279684e-32
6.9886468822083e-32
1.4423635102836e-31
2.8448160082612e-31
5.3758250253051e-31
9.7534520912129e-31
1.7019968219239e-30
2.8609009071002e-30
4.6383601299553e-30
7.2619478703509e-30
1.0990739974651e-29
1.6095425899596e-29
2.2827700817422e-29
3.1380507196849e-29
4.184327529023e-29
5.415873555444e-29
6.8089444152711e-29
8.3202240468469e-29
9.8877085984007e-29
1.1434320351079e-28
1.2874072386828e-28
1.4120112371282e-28
1.5093572827652e-28
1.5731943350095e-28
1.5995712813652e-28
1.5872304162597e-28
1.537678088013e-28
1.4549342365727e-28
1.3450131416616e-28
1.2152252492917e-28
1.0734083618306e-28
9.2719443005204e-29
7.8339876760984e-29
6.4758787853999e-29
5.2384760883795e-29
4.1474176873907e-29
3.2142758963351e-29
2.4388075191305e-29
1.8117921601933e-29
1.3179985590937e-29
9.3892077077377e-30
6.5505151599653e-30
4.475830342039e-30
2.9952803434378e-30
1.9632551590224e-30
1.2603684335834e-30
7.9250665113762e-31
4.8808302827605e-31
2.9442102219096e-31
1.7395054163695e-31
1.0066097910664e-31
5.7051984407375e-32
3.1670140996459e-32
1.7218448527907e-32
9.1684903297314e-33
4.7814148092636e-33
2.4421075383162e-33
1.2215688163465e-33
5.984266364605e-34
2.8710365943451e-34
2.4642640198264e-34
0
0
0
0
0
0
-1.1685669281898e-53
-8.7726754005286e-52
-3.2727183430678e-50
-8.0892886876699e-49
-1.4903092161422e-47
-2.1828325894519e-46
-2.6476110394574e-45
-2.7352240064478e-44
-2.4568001877286e-43
-1.9489478816232e-42
-1.3824583053281e-41
-8.8564544851959e-41
-5.1664741603678e-40
-2.7634024970788e-39
-1.3631552196042e-38
-6.2326519554982e-38
-2.6528320473043e-37
-1.0551112041363e-36
-3.9344083923533e-36
-1.3795069424284e-35
-4.5599004847157e-35
-1.4241951886952e-34
-4.2116119327844e-34
-1.181330029147e-33
-3.1479146875076e-33
-7.9799248216517e-33
-1.9266688085797e-32
-4.4347416580127e-32
-9.7389268470304e-32
-2.0415631910008e-31
-4.0863372795109e-31
-7.8089741201636e-31
-1.4240609175732e-30
-2.4755801434415e-30
-4.094706240003e-30
-6.4240035373382e-30
-9.509859095258e-30
-1.3166807844658e-29
-1.6775711000408e-29
-1.9018453568013e-29
-1.7572505704358e-29
-8.8153911444111e-30
1.2383635301904e-29
5.268819107249e-29
1.2003803568099e-28
2.2303882649148e-28
3.6998127809866e-28
5.6755218250955e-28
8.1938918820813e-28
1.1247088236541e-27
1.4772791966052e-27
1.8649963329099e-27
2.2702492215611e-27
2.6711320496037e-27
3.0434068524315e-27
3.3629698490937e-27
3.6084652581872e-27
3.7636481871944e-27
3.8191342296504e-27
3.7732798938584e-27
3.632090704014e-27
3.4082188741541e-27
3.1192552679913e-27
2.7856140809387e-27
2.428339852804e-27
2.0671365550061e-27
1.7188417381707e-27
1.3964667546856e-27
1.1088200302955e-27
8.6064352678173e-28
6.5313493334232e-28
4.8470349349116e-28
3.5181227778818e-28
2.4978596378293e-28
1.7350072580439e-28
1.179122676507e-28
7.8412293050215e-29
5.1028786729424e-29
3.250024689218e-29
2.0259523098628e-29
1.2361481966731e-29
7.3830432735973e-30
4.3166426739942e-30
2.4707146292237e-30
1.3844676579394e-30
7.5952637428419e-31
4.0795952899534e-31
2.145449289892e-31
1.1047338336635e-31
5.5698711250648e-32
2.7497247968604e-32
1.329220667232e-32
6.2917954629321e-33
5.2694886355442e-33
0
0
0
0
0
3.8794307266213e-55
-4.0480029641711e-52
-3.1132092013368e-50
-1.1623300312011e-48
-2.8597175851925e-47
-5.2341488095573e-46
-7.6105123474416e-45
-9.1612368003813e-44
-9.392722984471e-43
-8.3737970545703e-42
-6.5948138853475e-41
-4.645458761462e-40
-2.9563641403021e-39
-1.7138811047149e-38
-9.1139066036109e-38
-4.4718192268369e-37
-2.0347680131287e-36
-8.6238574849824e-36
-3.4175223087132e-35
-1.2706141821884e-34
-4.4454090812145e-34
-1.467462798343e-33
-4.5816269647352e-33
-1.3558252577739e-32
-3.810309184358e-32
-1.0187033805221e-31
-2.5950788757716e-31
-6.3079063670402e-31
-1.4648924620763e-30
-3.2539218077255e-30
-6.9203448375605e-30
-1.4104258141929e-29
-2.7567719010541e-29
-5.1706681768829e-29
-9.3108859832417e-29
-1.6101455674421e-28
-2.6743357980779e-28
-4.2656673936441e-28
-6.5311541137663e-28
-9.5909178371271e-28
-1.3489211500919e-27
-1.8129895475496e-27
-2.3203200551245e-27
-2.8116744161871e-27
-3.1949161693544e-27
-3.3447330355816e-27
-3.1086035851312e-27
-2.3200907003878e-27
-8.1918552430516e-28
1.522272343418e-27
4.7737301055287e-27
8.9224028348093e-27
1.3858141863383e-26
1.9370852178498e-26
2.5162667213671e-26
3.0874419102401e-26
3.6123136233503e-26
4.0545014554995e-26
4.3837097361129e-26
4.5791055471308e-26
4.6313943659721e-26
4.5433258340425e-26
4.3286461471162e-26
4.0097738306191e-26
3.6146601508832e-26
3.1733745527638e-26
2.7149267052949e-26
2.2647212968219e-26
1.8428762111029e-26
1.4634598993892e-26
1.1345545399754e-26
8.5895033888628e-27
6.3523073656967e-27
4.5901305184345e-27
3.2415033135913e-27
2.2376062401921e-27
1.510134995668e-27
9.9658490232761e-28
6.4319701583864e-28
4.060352043082e-28
2.5074178955574e-28
1.5148921519938e-28
8.9551513002603e-29
5.1801300314488e-29
2.9323891814341e-29
1.6246100530732e-29
8.8095461155439e-30
4.675867739402e-30
2.4294049811541e-30
1.2356310569741e-30
6.1524583351765e-31
2.9991416350521e-31
1.4313602137005e-31
6.6883297274687e-32
5.4728798318046e-32
0
0
0
0
0
1.4660462210027e-53
-6.919528094203e-51
-5.500823935358e-49
-2.0646620615958e-47
-5.074512105781e-46
-9.2562692397371e-45
-1.3398153623304e-43
-1.6046645772052e-42
-1.6364273774318e-41
-1.450925267998e-40
-1.1363852766313e-39
-7.9608972706293e-39
-5.038839229743e-38
-2.905597026634e-37
-1.5370769087755e-36
-7.5036986283356e-36
-3.3976497359124e-35
-1.4332388156485e-34
-5.6541939593661e-34
-2.093211862841e-33
-7.293879063912e-33
-2.39871584712e-32
-7.4632058461166e-32
-2.201636433057e-31
-6.1701458106606e-31
-1.6456997667631e-30
-4.1842277806239e-30
-1.0156156850371e-29
-2.3565366717697e-29
-5.2333196618595e-29
-1.1135658711803e-28
-2.2725837610086e-28
-4.4521833678841e-28
-8.3794182775047e-28
-1.5161254262006e-27
-2.6386513465191e-27
-4.4192512516173e-27
-7.1248025863304e-27
-1.1059286612975e-26
-1.6527482441983e-26
-2.3774463835537e-26
-3.2901409834241e-26
-4.37650221293e-26
-5.5875945959369e-26
-6.8319050271965e-26
-7.9722629342347e-26
-8.8301982503519e-26
-9.1993824801583e-26
-8.8681834616127e-26
-7.649290453295e-26
-5.4122924783985e-26
-2.1135813058245e-26
2.1824927158718e-26
7.2963742767253e-26
1.2942921306131e-25
1.8757753725236e-25
2.4336913579802e-25
2.9283712472891e-25
3.3255169058844e-25
3.6000543313931e-25
3.7386103709903e-25
3.7402995532297e-25
3.6158249364475e-25
3.3851861167112e-25
3.0744905887517e-25
2.7124495882015e-25
2.3271053024935e-25
1.943208456799e-25
1.5804854449343e-25
1.2528475032722e-25
9.6843834690399e-26
7.3031403428481e-26
5.3750604125644e-26
3.8622824057047e-26
2.7103472947126e-26
1.8579947707929e-26
1.2445386248568e-26
8.1472580778659e-27
5.2136180455634e-27
3.2618863049083e-27
1.9955852927417e-27
1.1940079545566e-27
6.9877514043574e-28
4.0004943218563e-28
2.2407007211167e-28
1.2279812690912e-28
6.5853230139265e-29
3.4560177574617e-29
1.7750927764515e-29
8.9236349908449e-30
4.3910115306946e-30
2.1150122070199e-30
9.9725770031633e-31
4.6032669058443e-31
3.6853733161737e-31
0
0
0
0
3.7999804549675e-65
2.7611715440536e-52
-7.7648299335619e-50
-6.4314384846496e-48
-2.4321150629787e-46
-5.9792952202473e-45
-1.0880332219086e-43
-1.5690992349723e-42
-1.8710960788354e-41
-1.8991077718e-40
-1.6754994412367e-39
-1.3056264884087e-38
-9.0996423046601e-38
-5.7300015993506e-37
-3.2872082767915e-36
-1.7300946341335e-35
-8.4033756002422e-35
-3.7860664814771e-34
-1.5892454644969e-33
-6.239378541849e-33
-2.2989051163555e-32
-7.9734483747284e-32
-2.6103118815604e-31
-8.0856536119264e-31
-2.375012955316e-30
-6.6283593026358e-30
-1.7608275702196e-29
-4.4597376174356e-29
-1.0785277479853e-28
-2.4938695200945e-28
-5.5204616747948e-28
-1.1711898072192e-27
-2.3838315691423e-27
-4.6593359656825e-27
-8.7525700342785e-27
-1.581368504828e-26
-2.7497868631952e-26
-4.6044153487841e-26
-7.4277381367025e-26
-1.1547671843078e-25
-1.7305453795038e-25
-2.5000800486133e-25
-3.4814666203068e-25
-4.6716125636785e-25
-6.0367226014823e-25
-7.5046296081352e-25
-8.9613826699036e-25
-1.0254342963636e-24
-1.1203225175282e-24
-1.1619095647873e-24
-1.1329537224795e-24
-1.0206424252914e-24
-8.1915034055995e-25
-5.3146659580999e-25
-1.7006392832636e-25
2.4382614745001e-25
6.823077971549e-25
1.1139906436763e-24
1.5077253007284e-24
1.8362860111324e-24
2.0794031453837e-24
2.2256913302437e-24
2.2732452700483e-24
2.2289290575028e-24
2.1066085022922e-24
1.9247254860562e-24
1.7036670303494e-24
1.4633429462333e-24
1.2212780647383e-24
9.9138256058821e-25
7.8342194173991e-25
6.0309441683416e-25
4.5255284240294e-25
3.3118377426639e-25
2.3646970791039e-25
1.6479912666791e-25
1.1213806893486e-25
7.4524468324549e-26
4.8384572149295e-26
3.0695838605317e-26
1.9033058146952e-26
1.1536575702339e-26
6.8369023180908e-27
3.9620845179053e-27
2.2455954873077e-27
1.2449119548019e-27
6.7514312267e-28
3.5821954157413e-28
1.8596907618164e-28
9.4473077217677e-29
4.6966193925865e-29
2.2850897097578e-29
1.088150609633e-29
5.0718541289604e-30
2.3139692279328e-30
1.814647701451e-30
0
0
0
0
1.478236317549e-63
3.455477549014e-51
-6.4155452490061e-49
-5.5907486639894e-47
-2.1343526593784e-45
-5.2536097431504e-44
-9.5424381047216e-43
-1.3716954348755e-41
-1.6291462352518e-40
-1.6461761626181e-39
-1.4454928299074e-38
-1.1208898754014e-37
-7.7731373471274e-37
-4.8699999456462e-36
-2.779650552821e-35
-1.4555149376097e-34
-7.0337244216099e-34
-3.1528957913376e-33
-1.3167705551647e-32
-5.143612292681e-32
-1.885676911216e-31
-6.5076563976169e-31
-2.1199079789656e-30
-6.5343304785934e-30
-1.9099844286844e-29
-5.3047625721727e-29
-1.4024683825633e-28
-3.5352883085372e-28
-8.5096647099879e-28
-1.9586238248743e-27
-4.3160335053057e-27
-9.1161477960193e-27
-1.8475026821687e-26
-3.5960014283494e-26
-6.7280783848815e-26
-1.2109792729372e-25
-2.0982545111573e-25
-3.5020283357331e-25
-5.633095636313e-25
-8.7362656031156e-25
-1.3067620164107e-24
-1.8856001096195e-24
-2.6249248932875e-24
-3.525001672867e-24
-4.5650911481113e-24
-5.6983002917768e-24
-6.8493815463764e-24
-7.9169374125263e-24
-8.7809002462333e-24
-9.3151819652538e-24
-9.4042011367579e-24
-8.9608747210323e-24
-7.9429220627749e-24
-6.3642245138389e-24
-4.2986247914536e-24
-1.8748500107949e-24
7.3707146410135e-25
3.3458484317887e-24
5.7620973687301e-24
7.8207592054791e-24
9.3991397544451e-24
1.0427945865074e-23
1.0894146354866e-23
1.0836045770942e-23
1.0332270750593e-23
9.4871830002425e-24
8.4154488752164e-24
7.228164577156e-24
6.0222236484754e-24
4.8737383992496e-24
3.8354980723867e-24
2.9378160800407e-24
2.191759873432e-24
1.5936673984635e-24
1.1299759514356e-24
7.8163811402412e-25
5.2769060623426e-25
3.4780892233857e-25
2.2388372455986e-25
1.4078047817921e-25
8.649784378801e-26
5.194034629216e-26
3.0487744850509e-26
1.7496147891597e-26
9.8180356375721e-27
5.3880734508362e-27
2.8921773032937e-27
1.5186202773877e-27
7.8010274156306e-28
3.9207908649313e-28
1.9281977304503e-28
9.2793664864443e-29
4.3702185271549e-29
2.0143354097371e-29
9.0871287958534e-30
6.9864862406415e-30
0
0
0
0
2.8566197295181e-62
3.2322470144942e-50
-4.1448949096357e-48
-3.8503906495303e-46
-1.4872517244427e-44
-3.6685370687852e-43
-6.6546252242991e-42
-9.5379942888168e-41
-1.128548148435e-39
-1.1354717698948e-38
-9.9247256763558e-38
-7.6591278560858e-37
-5.2852797165462e-36
-3.2947064491605e-35
-1.8709739472994e-34
-9.7468901700684e-34
-4.6859139141479e-33
-2.089630156439e-32
-8.6818909606723e-32
-3.3737409371592e-31
-1.2303980682324e-30
-4.224095175873e-30
-1.3688403354459e-29
-4.1971997185953e-29
-1.2204144634464e-28
-3.3717788093068e-28
-8.8674590436916e-28
-2.2235276386098e-27
-5.3240500169074e-27
-1.2189772551032e-26
-2.6720865358227e-26
-5.6144701684822e-26
-1.13195776537e-25
-2.1919745022157e-25
-4.0804516597963e-25
-7.3079671375946e-25
-1.2601262302278e-24
-2.0933393986868e-24
-3.3521020773452e-24
-5.1767112908478e-24
-7.7128955462017e-24
-1.1090006231898e-23
-1.5391156639967e-23
-2.0618241509453e-23
-2.665738569582e-23
-3.3252512648142e-23
-3.9995561116171e-23
-4.6340717075703e-23
-5.1646593095477e-23
-5.5244938378541e-23
-5.6528231091547e-23
-5.5042905570368e-23
-5.0571606935131e-23
-4.3187953839746e-23
-3.3271214974198e-23
-2.147543071346e-23
-8.6562847215058e-24
4.2326174417723e-24
1.6256482742894e-23
2.6609386065399e-23
3.4700034447714e-23
4.0201213519117e-23
4.3058472694749e-23
4.3461321679014e-23
4.1786359969747e-23
3.8525227342332e-23
3.4210717578147e-23
2.9352257187169e-23
2.4388145614623e-23
1.9657600686631e-23
1.539174902512e-23
1.1719911719364e-23
8.6861205128016e-24
6.2706582344235e-24
4.4122099313111e-24
3.0275063962231e-24
2.0267397127135e-24
1.3242408582165e-24
8.4477808026698e-25
5.2632915600211e-25
3.2035280597747e-25
1.9052851530673e-25
1.1075017908671e-25
6.2930996448663e-26
3.4961854123506e-26
1.8993288965261e-26
1.0091158522492e-26
5.244088960398e-27
2.665843496366e-27
1.3257972708226e-27
6.4511194253688e-28
3.0714386891055e-28
1.4309575929771e-28
6.5240224710955e-29
2.910918550784e-29
2.1955234953792e-29
0
0
0
0
3.6618810143252e-61
2.4102828496464e-49
-2.1668991512967e-47
-2.1860790281274e-45
-8.5661439834065e-44
-2.1195365508499e-42
-3.8417061785716e-41
-5.4919852059471e-40
-6.4750645722084e-39
-6.4878877309729e-38
-5.6453571476711e-37
-4.336050800694e-36
-2.9775157883057e-35
-1.8468161142707e-34
-1.0434192807161e-33
-5.4077128442708e-33
-2.5862844803771e-32
-1.1472748771944e-31
-4.7414614961623e-31
-1.832712660371e-30
-6.6481128735571e-30
-2.2700838281691e-29
-7.3164700284068e-29
-2.2311764419985e-28
-6.4519616898455e-28
-1.7727126626833e-27
-4.6361587544927e-27
-1.1560249638137e-26
-2.7524494808105e-26
-6.2663434729241e-26
-1.3658462376412e-25
-2.8535624961856e-25
-5.7205120903127e-25
-1.1014634669286e-24
-2.0388380334273e-24
-3.631016823165e-24
-6.2262833606984e-24
-1.0286647294946e-23
-1.6383970421769e-23
-2.5170182414873e-23
-3.7313026732393e-23
-5.3393282776539e-23
-7.3767511647924e-23
-9.8411210308536e-23
-1.2676863062771e-22
-1.5764413299318e-22
-1.89172191571e-22
-2.188962938742e-22
-2.4397028806726e-22
-2.61471392183e-22
-2.6878708117844e-22
-2.6401520082145e-22
-2.463046783652e-22
-2.1606772380078e-22
-1.7501424190092e-22
-1.2599167847588e-22
-7.2651404214402e-23
-1.8996965106183e-23
3.1108124699966e-23
7.4390006632338e-23
1.0850072528996e-22
1.3219634557267e-22
1.4534504866917e-22
1.4878501456098e-22
1.4407561952531e-22
1.3319720503674e-22
1.18253816559e-22
1.0122229021489e-22
8.3774171224588e-23
6.7178907239781e-23
5.2281492847422e-23
3.9537610725187e-23
2.9084956005995e-23
2.0830066841602e-23
1.4534008000177e-23
9.8858424366991e-24
6.5584182502181e-24
4.2455586282189e-24
2.6828041825779e-24
1.6554214849212e-24
9.9775272064404e-25
5.8755142598456e-25
3.3812562447138e-25
1.9019911092048e-25
1.0459617011627e-25
5.6243145657075e-26
2.9575457741836e-26
1.5210928102594e-26
7.652267889023e-27
3.7659700872097e-27
1.8132288189642e-27
8.541801244163e-28
3.9372696412718e-28
1.7758795579511e-28
7.8383507434154e-29
5.802524421062e-29
0
0
0
0
3.5005693472954e-60
1.4923819964162e-48
-9.3283782329435e-47
-1.0510295540892e-44
-4.1919327667998e-43
-1.0416435175482e-41
-1.887569243055e-40
-2.6923075967198e-39
-3.1636132439495e-38
-3.1572325986302e-37
-2.7351471949163e-36
-2.0909832135823e-35
-1.428874105771e-34
-8.8183408476961e-34
-4.9567826424748e-33
-2.555622025268e-32
-1.2158271020422e-31
-5.3647580180905e-31
-2.2052564054681e-30
-8.4778149675564e-30
-3.0585090813813e-29
-1.0386147077011e-28
-3.3288531630078e-28
-1.009454017278e-27
-2.9025717614236e-27
-7.9295230379117e-27
-2.0618816916369e-26
-5.1115086154196e-26
-1.2099245505029e-25
-2.73836979415e-25
-5.9333829267078e-25
-1.2322437146118e-24
-2.4555094572309e-24
-4.6996609204376e-24
-8.6469943268079e-24
-1.5307270890576e-23
-2.6091077208456e-23
-4.2849285669779e-23
-6.7844710877471e-23
-1.0361905997802e-22
-1.5272498816056e-22
-2.1731276986434e-22
-2.9859406361265e-22
-3.9624718926285e-22
-5.0786994853575e-22
-6.286143860609e-22
-7.5113980253126e-22
-8.6598685241613e-22
-9.6240634317589e-22
-1.0295820118467e-21
-1.0580876530165e-21
-1.0413413514494e-21
-9.7678706015665e-22
-8.665604995263e-22
-7.1748139248039e-22
-5.4034034787638e-22
-3.4858712551094e-22
-1.5664430288649e-22
2.1861467252759e-23
1.7565427801299e-22
2.9691152185125e-22
3.8177858849107e-22
4.3028060167949e-22
4.4572560410433e-22
4.337695129535e-22
4.0134397727323e-22
3.5563488677182e-22
3.0325272668305e-22
2.4967272586594e-22
1.9895955733314e-22
1.5374108853182e-22
1.1536514781124e-22
8.416315190496e-23
5.9750799983378e-23
4.1312607065801e-23
2.7837366723602e-23
1.8290591202321e-23
1.1724508397992e-23
7.3352334359116e-24
4.4807120925069e-24
2.6732225207408e-24
1.5581232670841e-24
8.8747369522584e-25
4.9407285472622e-25
2.6890026283859e-25
1.430963217919e-25
7.4467291432655e-26
3.790154474681e-26
1.8869025556444e-26
9.1893234718323e-27
4.3781789026763e-27
2.0408379322266e-27
9.3079292081398e-28
4.1538183495039e-28
1.8138794306978e-28
1.3184001542253e-28
0
0
0
0
2.6620664316391e-59
7.8908547584109e-48
-3.3118058233921e-46
-4.3609507576108e-44
-1.7778714569509e-42
-4.4428198869107e-41
-8.0543552208562e-40
-1.1466539139057e-38
-1.3431868628595e-37
-1.3353319490626e-36
-1.1518392634075e-35
-8.7650573377744e-35
-5.9606783021893e-34
-3.6602936609037e-33
-2.046928453506e-32
-1.0498580539197e-31
-4.9682310056287e-31
-2.1804486822247e-30
-8.914431466816e-30
-3.4082583767531e-29
-1.2227816681583e-28
-4.1291585513507e-28
-1.3159747049935e-27
-3.9679245182492e-27
-1.1343892586017e-26
-3.0811081682044e-26
-7.9649488313166e-26
-1.9629379506069e-25
-4.6188427641305e-25
-1.0391160131164e-24
-2.2379562915466e-24
-4.619596982939e-24
-9.149328833101e-24
-1.740352846566e-23
-3.1823172334311e-23
-5.5984726833822e-23
-9.4829897539653e-23
-1.5476358471708e-22
-2.4350432359194e-22
-3.6956716290755e-22
-5.4128953702141e-22
-7.6538539105364e-22
-1.0451294820979e-21
-1.3784143032258e-21
-1.7560522672339e-21
-2.1607716338289e-21
-2.5673347710764e-21
-2.944068417584e-21
-3.2558456535628e-21
-3.468242633941e-21
-3.5522835685831e-21
-3.488969637271e-21
-3.2727318720402e-21
-2.9130869755284e-21
-2.4340896357143e-21
-1.8715969564404e-21
-1.2687904881909e-21
-6.7073580572554e-22
-1.189209039274e-22
3.5332853258578e-22
7.2388527761386e-22
9.8298076230878e-22
1.1325362081533e-21
1.1840299493077e-21
1.1554670240808e-21
1.0680752808832e-21
9.4327993106377e-22
8.0034574309239e-22
6.5487565131576e-22
5.181662947662e-22
3.972803555693e-22
2.9561849280504e-22
2.1375786507579e-22
1.5035473569597e-22
1.0296506008314e-22
6.8699866919949e-23
4.468740049082e-23
2.8353748429641e-23
1.7556358803066e-23
1.0612883338466e-23
6.2655796452447e-24
3.6137016942772e-24
2.0366824979896e-24
1.1219553915055e-24
6.0422178571261e-25
3.1817095812635e-25
1.6384445781004e-25
8.2520877447847e-26
4.0653863355414e-26
1.9592193423815e-26
9.2371536866629e-27
4.2608076734699e-27
1.9229326186912e-27
8.4912167473529e-28
3.6687750611695e-28
2.6190277709023e-28
0
0
0
0
1.6776158598026e-58
3.6366412293257e-47
-9.4647650489241e-46
-1.5828840188709e-43
-6.6327941808709e-42
-1.6697466282609e-40
-3.0307722168599e-39
-4.3084877226984e-38
-5.0325812798446e-37
-4.9848036853432e-36
-4.2818140750838e-35
-3.2435035938041e-34
-2.1951816783375e-33
-1.3413000363378e-32
-7.4625427761691e-32
-3.8075069073144e-31
-1.7922498828874e-30
-7.8234153881212e-30
-3.1810434306232e-29
-1.2095086538363e-28
-4.3152260603773e-28
-1.4490184446216e-27
-4.5919653057664e-27
-1.3766868102464e-26
-3.9132462957969e-26
-1.0567403335438e-25
-2.7158981976975e-25
-6.6540913101328e-25
-1.5564991513266e-24
-3.4809205135503e-24
-7.4520466516396e-24
-1.5289734065863e-23
-3.0097690535691e-23
-5.6898869420826e-23
-1.0339618591418e-22
-1.8075725510591e-22
-3.0423227281221e-22
-4.933214696096e-22
-7.7114482408454e-22
-1.1626738195739e-21
-1.6916030741203e-21
-2.3758893790265e-21
-3.2223498777024e-21
-4.2211234760007e-21
-5.3411489290857e-21
-6.5279677879553e-21
-7.705009768222e-21
-8.7790184651983e-21
-9.6494834222438e-21
-1.0221021149321e-20
-1.0416823903326e-20
-1.0190807898883e-20
-9.5361101198719e-21
-8.4881452302242e-21
-7.1214331160617e-21
-5.5406132723703e-21
-3.8671872283169e-21
-2.2243108886921e-21
-7.2222631854592e-22
5.533566902286e-22
1.5483441768706e-21
2.2421944499376e-21
2.6450788742129e-21
2.7914210848375e-21
2.73141220029e-21
2.5221636192976e-21
2.219895918193e-21
1.8740892043183e-21
1.5239784045115e-21
1.1972929874253e-21
9.107989548215e-22
6.7203339543682e-22
4.8161339492671e-22
3.3560605554379e-22
2.276084122568e-22
1.503545626461e-22
9.6807492972945e-23
6.0788372201309e-23
3.7245480965354e-23
2.2277291419183e-23
1.3012368904718e-23
7.4251100114216e-24
4.1402768769122e-24
2.2565511418897e-24
1.202384051416e-24
6.2647185286075e-25
3.1921628508912e-25
1.5909135912911e-25
7.7558387411156e-26
3.6988360208401e-26
1.7257633971561e-26
7.8776458018464e-27
3.5182305846968e-27
1.5373538771392e-27
6.5727989828244e-28
4.6096269790485e-28
0
0
0
0
9.0108899401392e-58
1.4838518527723e-46
-1.9754964358518e-45
-5.0735159220443e-43
-2.2015265520158e-41
-5.5950147484453e-40
-1.0177684302581e-38
-1.4454951040497e-37
-1.6841532156493e-36
-1.6623839655983e-35
-1.4221518106649e-34
-1.072491596883e-33
-7.2241838825218e-33
-4.3923114063311e-32
-2.431278910016e-31
-1.2340039635337e-30
-5.7777737990277e-30
-2.5084823846346e-29
-1.0144019206172e-28
-3.8357792353741e-28
-1.3609274622946e-27
-4.5444178052127e-27
-1.4320714145425e-26
-4.2692712839847e-26
-1.2067026287752e-25
-3.2401724198269e-25
-8.2802191753749e-25
-2.01713948756e-24
-4.6914048368647e-24
-1.0431334309188e-23
-2.2202100463057e-23
-4.5286385649481e-23
-8.8617932816234e-23
-1.6652481375823e-22
-3.0076510903282e-22
-5.2254265233512e-22
-8.7394677552004e-22
-1.408023845232e-21
-2.186553243335e-21
-3.2746807516025e-21
-4.7319572315948e-21
-6.6000735626697e-21
-8.8885940721002e-21
-1.1561055587658e-20
-1.4524596064854e-20
-1.7626460202566e-20
-2.0660053091916e-20
-2.3381648647738e-20
-2.5536661679497e-20
-2.6892066246301e-20
-2.7269712929714e-20
-2.6574514823305e-20
-2.4812029861881e-20
-2.2091797135578e-20
-1.8615471147314e-20
-1.4651702245215e-20
-1.0502159002924e-20
-6.4645494805349e-21
-2.7987111826559e-21
2.9915144689344e-22
2.7108889013094e-21
4.3985999794993e-21
5.3959164448521e-21
5.7913705515225e-21
5.707703655108e-21
5.280977800615e-21
4.6426335574946e-21
3.9064746047628e-21
3.1612798441452e-21
2.4686351769652e-21
1.864825735352e-21
1.3652964754027e-21
9.7022609827319e-22
6.7004897109402e-22
4.5016423220869e-22
2.944718036875e-22
1.8769408529167e-22
1.1664750020419e-22
7.0723971007011e-23
4.1854451038582e-23
2.4187461205104e-23
1.3654543486875e-23
7.5325815468294e-24
4.0617239941409e-24
2.1412995181463e-24
1.1038943805859e-24
5.5657955156918e-25
2.7449143569419e-25
1.3242557637625e-25
6.2500777064966e-26
2.8859535692625e-26
1.3037552778432e-26
5.762514578408e-27
2.491947140035e-27
1.0543245859426e-27
7.2659306292721e-28
0
0
0
0
4.2110882031235e-57
5.4265986499852e-46
-1.6086192430738e-45
-1.4443253645249e-42
-6.5576745510419e-41
-1.6870600861934e-39
-3.079159564843e-38
-4.3718840295457e-37
-5.0827262081683e-36
-5.0008550656423e-35
-4.2615118221868e-34
-3.1997793101461e-33
-2.1452864697859e-32
-1.2979547884249e-31
-7.1481932466408e-31
-3.6092466930857e-30
-1.6809560918533e-29
-7.2589036696959e-29
-2.9195210299682e-28
-1.0979482033289e-27
-3.8741962972836e-27
-1.2865907905686e-26
-4.0322165127339e-26
-1.1955131555095e-25
-3.360689360929e-25
-8.9749057529178e-25
-2.2810875219685e-24
-5.5268289069497e-24
-1.2784392161577e-23
-2.8271275025818e-23
-5.9842855423156e-23
-1.2138785989401e-22
-2.3620387173813e-22
-4.4132886498038e-22
-7.9246672215013e-22
-1.3686443095498e-21
-2.2751411496724e-21
-3.6426986186069e-21
-5.6207888737912e-21
-8.363083269626e-21
-1.2004416826804e-20
-1.6630513933983e-20
-2.2244233645934e-20
-2.8734502649187e-20
-3.5855615716874e-20
-4.3224422240494e-20
-5.0340656256104e-20
-5.6631477779398e-20
-6.1516012566162e-20
-6.4480627802291e-20
-6.5152278564771e-20
-6.3356550309916e-20
-5.9149327577389e-20
-5.2815828651326e-20
-4.4836893780762e-20
-3.5828450253956e-20
-2.6464683073085e-20
-1.7397746175548e-20
-9.1865777470497e-21
-2.2448194533527e-21
3.1863070438653e-21
7.0390986164172e-21
9.397825104308e-21
1.0461211792035e-20
1.0497247312586e-20
9.7984659475182e-21
8.6442200581399e-21
7.2739201091843e-21
5.872469908315e-21
4.5667793499244e-21
3.4306916506243e-21
2.495035881512e-21
1.7596851104167e-21
1.2051940149511e-21
8.0249831992974e-22
5.2002422115301e-22
3.2821972191666e-22
2.0192491224013e-22
1.2116632916678e-22
7.0955897338248e-23
4.0571913646531e-23
2.266102629128e-23
1.2368300680823e-23
6.5985822685837e-24
3.4420046876322e-24
1.7558235228314e-24
8.7604741908543e-25
4.2756595355038e-25
2.0414733969847e-25
9.5361498296607e-26
4.3581709403184e-26
1.9486866555317e-26
8.5248055056074e-27
3.6485887904451e-27
1.527752659603e-27
1.0348272211758e-27
0
0
0
0
1.7394338882476e-56
1.79643539192e-45
1.0060678837159e-44
-3.6586594876943e-42
-1.7644285831199e-40
-4.6112673212664e-39
-8.4568769874469e-38
-1.2012912466098e-36
-1.3942417357404e-35
-1.3677631062701e-34
-1.1612362979965e-33
-8.6824888116612e-33
-5.7945722277015e-32
-3.4889584994489e-31
-1.9118380154574e-30
-9.6035221780225e-30
-4.4492568988435e-29
-1.9111360706523e-28
-7.6455072603369e-28
-2.8598686970142e-27
-1.0037375097932e-26
-3.3156279249978e-26
-1.0336525097581e-25
-3.0486882073217e-25
-8.5258814348574e-25
-2.2652534900696e-24
-5.7282976925818e-24
-1.3809305233273e-23
-3.1783101422323e-23
-6.9932866293209e-23
-1.4728462947851e-22
-2.9724090330782e-22
-5.7540977370069e-22
-1.0694701334597e-21
-1.9100939318918e-21
-3.2807821016858e-21
-5.423152652353e-21
-8.6331492652184e-21
-1.3243391171238e-20
-1.9588054702958e-20
-2.7949623885381e-20
-3.8491420436871e-20
-5.1185191785395e-20
-6.5747758238297e-20
-8.1603099850281e-20
-9.7884901303114e-20
-1.1348893443997e-19
-1.2717542530702e-19
-1.3771061176722e-19
-1.4402672444668e-19
-1.4537336010062e-19
-1.4143263891813e-19
-1.3237618043127e-19
-1.1885263003287e-19
-1.0190765292328e-19
-8.2850802839782e-20
-6.309264335045e-20