/*--------------------------------*- C++ -*----------------------------------*\
  =========                 |
  \\      /  F ield         | OpenFOAM: The Open Source CFD Toolbox
   \\    /   O peration     | Website:  https://openfoam.org
    \\  /    A nd           | Version:  7
     \\/     M anipulation  |
\*---------------------------------------------------------------------------*/
FoamFile
{
    version     2.0;
    format      ascii;
    class       surfaceScalarField;
    location    "1.1";
    object      alphaPhi0.water;
}
// * * * * * * * * * * * * * * * * * * * * * * * * * * * * * * * * * * * * * //

dimensions      [0 3 -1 0 0 0 0];

internalField   nonuniform List<scalar> 
11840
(
0
0
0
0
0
0
0
0
0
0
0
0
0
0
0
0
0
0
0
0
0
0
0
0
0
0
0
0
0
0
0
0
0
0
0
0
0
0
0
0
0
0
0
0
0
0
0
0
0
0
0
0
0
0
0
0
0
0
0
0
0
0
0
0
0
0
0
0
0
0
0
0
0
0
0
0
0
0
0
0
0
0
0
0
0
0
0
0
0
0
0
0
0
0
0
0
0
0
0
0
0
0
0
0
0
0
0
0
0
0
0
0
0
0
0
0
0
0
0
0
0
0
0
0
0
0
0
0
0
0
0
0
0
0
0
0
0
0
0
0
0
0
0
0
0
0
0
0
0
0
0
0
0
0
0
0
0
0
0
0
0
0
0
0
0
0
0
0
0
0
0
0
0
0
0
0
0
0
0
0
0
0
0
0
0
0
0
0
0
0
0
0
0
0
0
0
0
0
0
0
0
0
0
0
0
0
0
0
0
0
0
0
0
0
0
0
0
0
0
0
0
0
0
0
0
0
0
0
0
0
0
0
0
0
0
0
0
0
0
0
0
0
0
0
0
0
0
0
0
0
0
0
0
0
0
0
0
0
0
0
0
0
0
0
0
0
0
0
0
0
0
0
0
0
0
0
0
0
0
0
0
0
0
0
0
0
0
0
0
0
0
0
0
0
0
0
0
0
0
0
0
0
0
0
0
0
0
0
0
0
0
0
0
0
0
0
0
0
0
0
0
0
0
0
0
0
0
0
0
0
0
0
0
0
0
0
0
0
0
0
0
0
0
0
0
0
0
0
0
0
0
0
0
0
0
0
0
0
0
0
0
0
0
0
0
0
0
0
0
0
0
0
0
0
0
0
0
0
0
0
0
0
0
0
0
0
0
0
0
0
0
0
0
0
0
0
0
0
0
0
0
0
0
0
0
0
0
0
0
0
0
0
0
0
0
0
0
0
0
0
0
0
0
0
0
0
0
0
0
0
0
0
0
0
0
0
0
0
0
0
0
0
0
0
0
0
0
0
0
0
0
0
0
0
0
0
0
0
0
0
0
0
0
0
0
0
0
0
0
0
0
0
0
0
0
0
0
0
0
0
0
0
0
0
0
0
0
0
0
0
0
0
0
0
0
0
0
0
0
0
0
0
0
0
0
0
0
0
0
0
0
0
0
0
0
0
0
0
0
0
0
0
0
0
0
0
0
0
0
0
0
0
0
0
0
0
0
0
0
0
0
0
0
0
0
0
0
0
0
0
0
0
0
0
0
0
0
0
0
0
0
0
0
0
0
0
0
0
0
0
0
0
0
0
0
0
0
0
0
0
0
0
0
0
0
0
0
0
0
0
0
0
0
0
0
0
0
0
0
0
0
0
0
0
0
0
0
0
0
0
0
0
0
0
0
0
0
0
0
0
0
0
0
0
0
0
0
0
0
0
0
6.2766580908528e-55
1.0440487314153e-54
1.0015303650043e-53
6.8907233899268e-54
7.4729278584836e-53
4.983378755433e-53
4.6945296860561e-52
3.2257239309169e-52
2.0676438497744e-51
1.4069390574059e-51
1.4988823527289e-50
8.9369375993464e-51
5.9905206998066e-50
4.205929643944e-50
2.5421991392725e-49
1.7965829283172e-49
1.0132655032751e-48
7.1609913430164e-49
4.5267205533352e-48
3.0573533814325e-48
5.6993393743148e-47
3.5973884183981e-47
2.3724196997141e-45
8.318415380727e-46
3.6213981329857e-44
1.2446881673566e-44
7.5558630720334e-44
5.2535417841382e-44
1.510898492251e-43
9.7691405255325e-44
2.5801789380396e-43
1.2783130303937e-43
2.4617218994391e-43
2.2699765650604e-43
2.5573277394657e-43
1.9917623697718e-43
2.0060654487256e-43
2.1719972549303e-43
1.4879455063103e-43
1.5998731409766e-43
8.5919126668851e-44
9.8719534907489e-44
3.3715684858767e-44
4.3899726739881e-44
7.3963694407212e-45
1.3391973470497e-44
1.1935215379487e-45
3.4151009006632e-45
2.194045817163e-46
8.268624080765e-46
4.2159417482482e-47
1.6261756804959e-46
7.7289731665834e-48
3.1840235106996e-47
1.8561715933279e-48
4.4825066779219e-48
3.6402216115541e-49
1.4346058448933e-48
7.5150991603384e-50
3.0716781394887e-49
1.310926136825e-50
5.997652487479e-50
2.9732653732523e-51
8.211403466665e-51
6.2163618800549e-52
2.4696980068628e-51
9.7198253103497e-53
5.0699787260797e-52
2.3333281599798e-53
5.7790263370254e-53
3.7159106990436e-54
1.8813222333282e-53
9.455094157192e-55
2.3259888288703e-54
1.7464618616943e-55
7.3356100527888e-55
2.7204479362872e-56
1.4103305581996e-55
6.7725494633554e-57
1.7146796984087e-56
1.0474473185659e-57
5.4417310600986e-57
2.6177132063169e-58
6.5910023839717e-58
4.0926866767871e-59
2.0944211108472e-58
7.6602854328496e-60
3.1307301884068e-59
1.910815199784e-60
4.8235697054494e-60
2.928787773271e-61
1.533306094281e-60
7.5665044838649e-62
1.832906459701e-61
1.3856113333048e-62
5.8499431132507e-62
2.1318056690161e-63
1.1148575472875e-62
5.3233647820414e-64
1.3408538669911e-63
8.1285024220096e-65
4.2657323448903e-64
2.1035914148519e-65
5.0824931159717e-65
3.8533556525854e-66
1.623321386071e-65
5.9850110002901e-67
3.0904745861704e-66
1.3009889171851e-67
3.8310788811939e-67
2.352659150036e-68
9.6518047827335e-68
6.0291179933637e-69
1.4616650100088e-68
1.1011267135517e-69
4.6459390228214e-69
1.677678245119e-70
8.8441474939715e-70
4.3608088259005e-71
1.0477969250135e-70
8.0834908985852e-72
3.3482555176812e-71
1.543513770195e-72
6.2920736936877e-72
2.8378930280194e-73
1.1942108480828e-72
4.323354913973e-74
2.2769863073375e-73
8.3470118083586e-75
3.2484245839244e-74
1.8854006366407e-75
5.2971960785196e-75
4.1000355298644e-76
1.1503656190014e-75
8.6578217732798e-77
2.4782019038171e-76
2.0398926915028e-77
5.1450358627756e-77
3.7146197183381e-78
1.5606986341714e-77
5.6891857685821e-79
2.9730080908067e-78
1.2724932817004e-79
3.618298583011e-79
2.9788785739041e-80
7.6889316566121e-80
4.4623731055034e-81
2.3709971778166e-80
8.6196218866695e-82
3.3359899350305e-81
1.9336153547197e-82
5.4730415768413e-82
4.1780649254665e-83
1.1797163309429e-82
8.7831753633555e-84
2.5220627753687e-83
2.0068511760648e-84
5.2378732844962e-84
3.052994282603e-85
1.5904461974183e-84
6.6628682953293e-86
1.9396609809071e-85
1.6327830825621e-86
3.9940146342629e-86
1.2039237541661e-86
0
0
0
0
0
0
0
0
0
0
0
0
0
0
0
0
0
0
1.7547927963148e-38
1.563407486594e-38
3.1676892286747e-39
1.4380238734473e-38
1.6357997593355e-39
1.5318894693392e-39
2.2820692257457e-37
6.0185310786732e-38
4.1788147489579e-38
1.8641877507938e-37
7.6006709991288e-39
3.418747649045e-38
1.3819654299674e-39
6.2187055691614e-39
2.5126672013776e-40
1.1306987098297e-39
2.9458625411653e-39
0
5.3561137666678e-40
2.4102511644985e-39
9.7383887322142e-41
4.3822748934477e-40
1.7706161331432e-41
7.9677725991565e-41
3.2193020616267e-42
1.4486859273581e-41
2.0745673246941e-41
0
3.7719406386697e-42
1.6973732746585e-41
6.8580753843806e-43
3.0861335693702e-42
1.2469288170455e-43
5.6111653422052e-43
2.2674022889214e-44
1.0202708434428e-43
4.1517142272366e-45
1.8622245967894e-44
1.7212766768116e-45
4.9894374086538e-45
4.2051393662294e-45
1.2668025052101e-44
7.9501856558178e-43
0
2.7615370785416e-43
7.8773821274973e-43
2.4774526444455e-43
3.6697852669896e-43
1.5902107924747e-42
0
5.3837517355039e-43
1.4670272587537e-42
1.1817848867113e-42
0
1.3694963334322e-42
0
1.4080762628299e-43
1.3145602062295e-42
1.3425926071289e-43
0
3.0538093448164e-44
1.1791777446498e-43
8.2984672197996e-45
2.6805881694491e-44
7.1908895389502e-46
8.3156377820351e-45
6.5497828018238e-46
2.1045993890143e-46
2.19489510963e-47
6.6149381665734e-46
1.0811839964706e-47
0
6.3517863573554e-48
4.1568381091897e-48
2.1605133259784e-48
9.0675825168456e-48
4.2423318165624e-49
1.7801749566197e-48
8.1720401850733e-50
0
8.7832244186698e-50
0
9.7992887821087e-51
7.8428205643165e-50
2.9967367898717e-51
0
5.5391562533536e-52
2.4572364104179e-51
1.6429660877738e-52
0
1.6483289443703e-52
0
2.3256740972539e-53
1.4167897675129e-52
1.4651706042084e-53
0
1.98984598578e-54
1.2665663658078e-53
1.2408360226817e-54
0
2.8935810614702e-56
1.2120419202013e-54
2.8945511609712e-56
0
1.7115165714835e-56
0
2.3276822180737e-57
1.4788486151878e-56
1.3720499464797e-57
0
2.4948990354756e-58
1.122597432183e-57
3.401735431757e-59
2.1547968481161e-58
2.0159117788956e-59
0
2.7242838028119e-60
1.7435099743209e-59
1.6848606857805e-60
0
5.4593069067194e-62
1.6302775582915e-60
5.4594969351841e-62
0
7.4603820544927e-63
0
7.4573467122354e-63
0
4.7075111991736e-63
0
8.0556519550929e-64
3.9019487460204e-63
1.4646678558418e-64
6.5909893498646e-64
2.5889346704272e-65
0
2.5881377238335e-65
0
8.5610087341705e-67
2.5025280088268e-65
8.5583741682964e-67
0
3.5089530246671e-68
8.207480192864e-67
3.2495976964123e-68
0
9.0864620596241e-69
0
3.6899338165692e-69
0
3.0581799746536e-69
0
4.7530545616343e-70
0
4.7514542336793e-70
0
8.9847748554091e-72
4.6616065018226e-70
6.3301902804739e-72
0
4.6452267632203e-72
0
1.8689815667649e-73
4.4583286194798e-72
1.713406708657e-73
0
3.564516500151e-74
0
1.2944128793153e-74
0
1.0087054378413e-74
0
1.433617108618e-75
0
1.4330695486125e-75
0
1.5179500950522e-76
0
1.0521474982019e-76
0
0
0
0
0
0
0
0
0
0
0
0
0
0
0
0
3.8195181851115e-27
1.914781349071e-27
1.7678807517142e-25
9.0184220958544e-26
3.9001493111122e-24
2.033126790836e-24
5.3773367211402e-23
2.8781678075992e-23
5.1036438331672e-22
2.8253440155558e-22
3.4555180944997e-21
1.9688216645688e-21
2.0893395534403e-20
1.1852302159444e-20
1.571106929888e-19
8.6844797309682e-20
1.2419472241921e-18
6.847804263816e-19
7.6607858446635e-18
4.3986482566148e-18
3.5751782545902e-17
2.1737213593122e-17
1.222914545077e-16
7.9869743692832e-17
3.0338210332398e-16
2.1515148161253e-16
5.8330377038537e-16
4.4271083704555e-16
9.6223428514957e-16
7.6036728132766e-16
1.4803463732206e-15
1.1949837175976e-15
2.1665216915685e-15
1.7965969124242e-15
2.8055895821544e-15
2.4913470008421e-15
2.9919762300232e-15
2.901799697132e-15
2.9959875097442e-15
2.938860969747e-15
2.7988722920613e-15
2.8277941676294e-15
2.3362812821492e-15
2.4997276897893e-15
1.6184169085262e-15
1.9089973772785e-15
8.6622160734292e-16
1.1823156536529e-15
3.3597824014267e-16
5.5712300254298e-16
9.6885639695717e-17
1.9559049738675e-16
2.4571785334003e-17
5.5504935286765e-17
6.5695575109477e-18
1.4893332482211e-17
1.959888657381e-18
4.2244815709195e-18
6.3645044793844e-19
1.3005494463082e-18
2.1608504704344e-19
4.2642661424748e-19
7.4397768295097e-20
1.4460053400614e-19
2.552610701218e-20
4.9541365326718e-20
8.6458566474645e-21
1.6903963176523e-20
2.8675574441635e-21
5.6886447484109e-21
9.221688476156e-22
1.8699128904954e-21
2.8502774117551e-22
5.9448097588513e-22
8.4457035963853e-23
1.8163833907743e-22
2.4122469047278e-23
5.3362387550466e-23
6.7069904072263e-24
1.517310432813e-23
1.8313857359722e-24
4.2117726741503e-24
4.9351903129838e-25
1.1490764295285e-24
1.3146071420814e-25
3.0925778490994e-25
3.4624517242425e-26
8.2228301473599e-26
9.0203202055268e-27
2.1614430742868e-26
2.3261193222689e-27
5.6205957967475e-27
5.9429694777919e-28
1.4470938598869e-27
1.5055294487689e-28
3.6919293436922e-28
3.7841912077576e-29
9.3405947326396e-29
9.442474820575e-30
2.3449213860426e-29
2.3400648865084e-30
5.8444251016611e-30
5.762096992405e-31
1.4468213472289e-30
1.4102916582864e-31
3.5589948968902e-31
3.4321205680748e-32
8.7024515725207e-32
8.3076182545008e-33
2.1159453644951e-32
2.000661403447e-33
5.1173929941221e-33
4.7947464328023e-34
1.2313893791647e-33
1.1438135904331e-34
2.9488636497609e-34
2.7166689430955e-35
7.0295542982419e-35
6.4253528640675e-36
1.6684289770438e-35
1.5136184690783e-36
3.9434859099834e-36
3.5519718265062e-37
9.283780118884e-37
8.3047290966072e-38
2.1772833475986e-37
1.9348563788951e-38
5.0876705957475e-38
4.492617416431e-39
1.1846788614606e-38
1.0397616701062e-39
2.7492824952045e-39
2.3988577958054e-40
6.3596142397604e-40
5.5177365655357e-41
1.4665165264242e-40
1.2654635386277e-41
3.3716061717285e-41
2.8941048828614e-42
7.7290549285187e-42
6.6007926546938e-43
1.7668469297005e-42
1.5015301295645e-43
4.0280539396059e-43
3.4069437626044e-44
9.1591256934096e-44
7.7112305607635e-45
2.0773593433013e-44
1.74117836396e-45
4.7000518009787e-45
3.9224285422919e-46
1.0608642568736e-45
8.8163498116208e-47
2.3889894370695e-46
1.9773015823836e-47
5.3677887843672e-47
4.4252143897821e-48
1.2034595063811e-47
9.8832260047414e-49
2.6924594714649e-48
2.2028791296549e-49
6.0113774734282e-49
4.900422827131e-50
1.3394616596423e-49
1.0880522670855e-50
2.978799492212e-50
2.4113523755938e-51
6.6119438665369e-51
5.3344149834326e-52
1.4649243197658e-51
1.1780067084116e-52
3.2398111212334e-52
2.5969407611031e-53
7.1525719489818e-53
5.7154682797758e-54
1.5763782742355e-53
1.2556971801314e-54
3.4685263451231e-54
2.7578089481614e-55
7.6169319256902e-55
5.9582078089759e-56
1.6764706827968e-55
1.5028161662223e-56
3.5154239265266e-56
1.1275022274338e-56
0
0
0
0
0
0
0
0
0
0
0
0
3.5461554429093e-27
1.764406883271e-27
2.3661289463216e-25
1.176520800759e-25
7.1864405507833e-24
3.5990957383031e-24
1.3655891436869e-22
6.925973687763e-23
1.8200897138613e-21
9.4023029653588e-22
1.7909501256861e-20
9.5034526151393e-21
1.2922575323664e-19
7.1164743882339e-20
7.0693899327135e-19
4.0261458882462e-19
3.3667087496945e-18
1.9137443867009e-18
1.8081992197542e-17
9.7268661367665e-18
1.4374124184482e-16
7.3402904277849e-17
9.5683509438489e-16
5.0622489662082e-16
4.1374484087304e-15
2.4849399506269e-15
1.2215835463846e-14
8.6857580543347e-15
1.8344653775001e-14
1.6096595129288e-14
2.2392615482841e-14
2.1747147337537e-14
2.9764033151611e-14
2.7929179531648e-14
4.3714908323361e-14
3.8844235278108e-14
5.9860599497378e-14
5.4724781039402e-14
6.6029594646629e-14
6.5878223213608e-14
6.623343218084e-14
6.7097118914415e-14
6.2217497922481e-14
6.4256523542224e-14
5.1537973557338e-14
5.5832016716112e-14
3.5097001843567e-14
4.1266156229335e-14
1.8437499984216e-14
2.4582972108682e-14
7.1190918139249e-15
1.1262044132909e-14
2.1510249120918e-15
3.9954024158642e-15
6.1009214245504e-16
1.220268956355e-15
1.8734115179503e-16
3.6992883234914e-16
6.3623997943871e-17
1.201145867267e-16
2.304209148928e-17
4.1905802352224e-17
8.5546978182484e-18
1.5281298693283e-17
3.1748787519512e-18
5.6607671884626e-18
1.1645681370008e-18
2.0918970883276e-18
4.2033863482175e-19
7.6448447754837e-19
1.4850947875341e-19
2.7476983273798e-19
5.0878350343711e-20
9.639260060135e-20
1.6717632360269e-20
3.266889888982e-20
5.2332333030669e-21
1.0599079836061e-20
1.5633683224557e-21
3.2809325445052e-21
4.4982873341561e-22
9.7313140298314e-22
1.2610052977396e-22
2.7914182280719e-22
3.4739610689015e-23
7.8187018994645e-23
9.4448839423128e-24
2.1527647031211e-23
2.5372107797494e-24
5.8459000609224e-24
6.7363709989915e-25
1.567719436291e-24
1.7685466257687e-25
4.1548171534882e-25
4.5950694169724e-26
1.0890131139142e-25
1.1826494349159e-26
2.8255095499338e-26
3.0175962898646e-27
7.2630520227137e-27
7.6382036474867e-28
1.8510820811887e-27
1.9190247625263e-28
4.6804528049828e-28
4.7877809942305e-29
1.174728390318e-28
1.1866914905182e-29
2.928053639663e-29
2.9232073911887e-30
7.2509748487393e-30
7.1589928783528e-31
1.7846598494964e-30
1.7436222612085e-31
4.3672292435862e-31
4.2246046031626e-32
1.0628785664516e-31
1.0185140497523e-32
2.5734266037856e-32
2.4439924126675e-33
6.2001624502001e-33
5.8382234550874e-34
1.4868282005679e-33
1.3886674967416e-34
3.5496043865593e-34
3.289534944599e-35
8.4381683992489e-35
7.7618529106151e-36
1.9977748948665e-35
1.8245744942614e-36
4.7114024550861e-36
4.2735505519507e-37
1.1069525710392e-36
9.974899502547e-38
2.5914812424271e-37
2.3204811882823e-38
6.0459999672048e-38
5.3808538568689e-39
1.4058729322012e-38
1.2438798751969e-39
3.2586305779141e-39
2.8668649975378e-40
7.5298327559001e-40
6.5884353028332e-41
1.7347771967979e-40
1.5098914028914e-41
3.9852406097023e-41
3.4509392902649e-42
9.1297658232741e-42
7.8667389745329e-43
2.0859238172238e-42
1.7887663229486e-43
4.7534429894318e-43
4.0573989367449e-44
1.0804993985563e-43
9.1814042307473e-45
2.4500823588149e-44
2.0728518831213e-45
5.5425366360285e-45
4.6693258112504e-46
1.2509456437051e-45
1.0495289681666e-46
2.8170791850587e-46
2.3540480749502e-47
6.3302056608103e-47
5.2691670371958e-48
1.4194524708996e-47
1.1770592045204e-48
3.1763846127242e-48
2.6242623770929e-49
7.0937896681868e-49
5.8397023160152e-50
1.5811725971977e-49
1.2970886847537e-50
3.5176915624622e-50
2.875834524871e-51
7.811504089192e-51
6.3649751981464e-52
1.7315256580483e-51
1.4061692989051e-52
3.8315304791401e-52
3.1051845432407e-53
8.4611923539204e-53
6.7449105854436e-54
1.8725293647334e-53
1.711048537679e-54
3.9478493231015e-54
1.2744782015889e-54
0
0
0
0
0
0
0
0
0
0
1.5365610502506e-27
7.5653149602864e-28
1.4347727299986e-25
7.0068082749863e-26
5.5317406590609e-24
2.7003177815954e-24
1.2749216693403e-22
6.2485318744035e-23
2.0530980941141e-21
1.0132011305111e-21
2.5041570988035e-20
1.2486573449551e-20
2.4003743762463e-19
1.2162997429678e-19
1.8239219862505e-18
9.4895380762412e-19
1.0761363646543e-17
5.8379582139794e-18
4.8045808365904e-17
2.7231252555774e-17
1.8392663353195e-16
1.0373166949911e-16
8.3456637555417e-16
4.2987504795908e-16
5.4865078249839e-15
2.4754510840403e-15
7.6311444329472e-14
2.5502209809894e-14
3.6554374911507e-13
1.766512402663e-13
6.0775711463078e-13
5.6099412453561e-13
6.4967369116804e-13
7.966257588359e-13
6.9150922969952e-13
9.4744648541492e-13
8.5633570432099e-13
1.109791122337e-12
1.0269152472961e-12
1.3363999140549e-12
1.0645508245078e-12
1.4426470970308e-12
1.0595581459727e-12
1.4099663989472e-12
9.4850798140776e-13
1.2941578850344e-12
7.0264206949327e-13
1.0216907921372e-12
4.030186700663e-13
6.3484448002048e-13
1.7449879591614e-13
2.9242716625722e-13
5.9918323076368e-14
1.03906863503e-13
1.8765134621983e-14
3.3030873371669e-14
6.2248786125519e-15
1.0755998959003e-14
2.2895227154542e-15
3.8052303933264e-15
9.052116384077e-16
1.4591549278811e-15
3.6846475150968e-16
5.8701071532155e-16
1.4982833975147e-16
2.3974767123807e-16
6.0018395820789e-17
9.7343895493503e-17
2.3620104111635e-17
3.8947275414498e-17
9.1388677307335e-18
1.5328272170912e-17
3.4672833734653e-18
5.9273504056119e-18
1.2784857342141e-18
2.2400457037224e-18
4.5202404349559e-19
8.1855446621261e-19
1.5139635746664e-19
2.8557844423104e-19
4.7840106312986e-20
9.4301917199665e-20
1.4359658311134e-20
2.9477049432295e-20
4.1512362288277e-21
8.7995616254655e-21
1.1714856736659e-21
2.5406506172507e-21
3.2538012309165e-22
7.1712550469871e-22
8.9220604023307e-23
1.991280399135e-22
2.416495290542e-23
5.453754510787e-23
6.4660292117565e-24
1.4746891883685e-23
1.7104121981532e-24
3.9395193716043e-24
4.4770509685101e-25
1.040624521911e-24
1.1607154205987e-25
2.7205917299035e-25
2.9829552260852e-26
7.0458246058935e-26
7.6038300572166e-27
1.8089290855073e-26
1.9236088696344e-27
4.6068324610444e-27
4.8317846935157e-28
1.1644143486055e-27
1.2055712356576e-28
2.9224291744327e-28
2.9891171459062e-29
7.2861471677815e-29
7.3673542911237e-30
1.8052496224712e-29
1.8056682950953e-30
4.446452161639e-30
4.4019876893631e-31
1.0890918373463e-30
1.0677260181174e-31
2.6534754287324e-31
2.5773720745989e-32
6.4324995026683e-32
6.1929612630067e-33
1.5518994136582e-32
1.4815409975122e-33
3.7270320443209e-33
3.5294450445885e-34
8.9118451099625e-34
8.3744047929849e-35
2.1220696318794e-34
1.9793753386184e-35
5.0328701538949e-35
4.6611818284163e-36
1.1890692708791e-35
1.0937553388499e-36
2.7989833983153e-36
2.5577560302692e-37
6.5653403961358e-37
5.9616669266863e-38
1.5347441094561e-37
1.3851521518923e-38
3.5759457547358e-38
3.208461923671e-39
8.3056417991016e-39
7.4098868770218e-40
1.9232284641741e-39
1.7064147774612e-40
4.4402687980106e-40
3.9188319661948e-41
1.0222358016941e-40
8.9756553894557e-42
2.3469116308235e-41
2.0504521071583e-42
5.3738361160915e-42
4.6724168255988e-43
1.2272988325593e-42
1.0621230310301e-43
2.7959459614907e-43
2.4086880192515e-44
6.3540754583024e-44
5.4498986414289e-45
1.4406287827563e-44
1.2303444065207e-45
3.2587977912294e-45
2.7715473968186e-46
7.3552328756702e-46
6.2301852409634e-47
1.6565170293517e-46
1.3976138488581e-47
3.7229002220427e-47
3.1289921881303e-48
8.3498237825203e-48
6.9915792417603e-49
1.8689899679102e-48
1.5592680215661e-49
4.1753490157361e-49
3.4710875005963e-50
9.3101163234962e-50
7.7122446090678e-51
2.0721770115498e-50
1.7126400439104e-51
4.6023257550207e-51
3.74068298424e-52
1.0242892203565e-51
9.5457304540998e-53
2.1714620512964e-52
7.0578238486781e-53
0
0
0
0
0
0
0
0
0
0
3.7392049403539e-26
1.7693024904501e-26
2.3911083310139e-24
1.1319333683214e-24
7.2626722379469e-23
3.4500462901539e-23
1.4080450390231e-21
6.7256103362322e-22
1.9741999881933e-20
9.4910711536427e-21
2.1523059088431e-19
1.0417692166123e-19
1.9110194053715e-18
9.3272108302082e-19
1.4103049122216e-17
6.9746031280024e-18
8.6312349541615e-17
4.3793759306578e-17
4.1905145615384e-16
2.2297332433849e-16
1.5407677888134e-15
8.6761098259422e-16
4.7599222764627e-15
2.6646660993805e-15
1.712604802352e-14
8.4363621943587e-15
9.6474600266528e-14
3.0672984977968e-14
9.6817950592168e-13
2.2416893993416e-13
3.1793396188342e-11
8.3603692239471e-12
5.2697806703019e-11
4.8298000631419e-11
4.7412270545924e-11
3.6264557758068e-11
3.0503655965443e-11
5.2216945001579e-11
2.5866350389484e-11
4.1798575626597e-11
2.3079238018726e-11
3.6133562019383e-11
2.0560493933256e-11
3.2187625030989e-11
1.6875856483633e-11
2.748125556978e-11
1.142132996362e-11
2.0544742929764e-11
5.5263297047914e-12
1.1902759077153e-11
1.6791260907617e-12
4.6266019155425e-12
3.6663880881608e-13
1.1201646229033e-12
9.6303055025771e-14
2.2233766432867e-13
3.5258832644395e-14
5.847821360588e-14
1.5365382940011e-14
2.206168062634e-14
7.0877506072334e-15
9.7186742556061e-15
3.2627269424344e-15
4.4832257750054e-15
1.4705282629746e-15
2.0646969402552e-15
6.4681904107278e-16
9.3307607723539e-16
2.781162911156e-16
4.1204159681679e-16
1.1713006736152e-16
1.7789134646556e-16
4.8279303124288e-17
7.5143893005272e-17
1.9344789333831e-17
3.0966371521183e-17
7.4351147349309e-18
1.2335998559026e-17
2.6986152520201e-18
4.6847760078927e-18
9.1549400230734e-19
1.673943809387e-18
2.9069689714276e-19
5.5970427934411e-19
8.752830890316e-20
1.7609885409893e-19
2.5432393571095e-20
5.2855973151933e-20
7.2301731535987e-21
1.536304104269e-20
2.0250693285965e-21
4.3709791408225e-21
5.5990358130037e-22
1.2239604135958e-21
1.5284466434323e-22
3.3800698886605e-22
4.1207943423473e-23
9.2129822797942e-23
1.0981272643598e-23
2.4803461970065e-23
2.8953941212861e-24
6.6018214248856e-24
7.5606047019503e-25
1.7389050930667e-24
1.9567508106584e-25
4.5365666737301e-25
5.0224897664156e-26
1.1731054201708e-25
1.2792118869032e-26
3.0086715942722e-26
3.2345653686018e-27
7.657294958562e-27
8.1232436295161e-28
1.9348534688597e-27
2.0270058904942e-28
4.8560272783973e-28
5.0274515650246e-29
1.2110003013136e-28
1.2397924280985e-29
3.0018637673672e-29
3.0407907522998e-30
7.3987885223631e-30
7.4195555719117e-31
1.8137613127766e-30
1.801485418219e-31
4.423496916066e-31
4.3535574815324e-32
1.0735544658741e-31
1.0473939387963e-32
2.5933041512959e-32
2.5090703948651e-33
6.2365527613484e-33
5.9859258559844e-34
1.4934186342051e-33
1.4224555787305e-34
3.5615773200764e-34
3.367466048104e-35
8.4605703252378e-35
7.9430742606538e-36
2.0022627190601e-35
1.8670440975297e-36
4.7213903613858e-36
4.3737810433354e-37
1.1094440766543e-36
1.0212887955912e-37
2.5982631563747e-37
2.3772705541187e-38
6.0653415126212e-38
5.5168828405339e-39
1.4114675596469e-38
1.2765504509604e-39
3.2747363951069e-39
2.9454579178886e-40
7.5755693775453e-40
6.7776257842959e-41
1.7475474891996e-40
1.5554265737727e-41
4.0202821693115e-41
3.5604420984833e-42
9.2243324364835e-42
8.1296971057747e-43
2.1110539597475e-42
1.8517941598906e-43
4.8192898865698e-43
4.2081314970192e-44
1.0975335428656e-43
9.5409812382679e-45
2.4936400558014e-44
2.1583977709488e-45
5.6527488320197e-45
4.8722652714924e-46
1.2785655129687e-45
1.0975302105504e-46
2.8856909798217e-46
2.4672445449295e-47
6.4992790718007e-47
5.5352943091303e-48
1.4608077216338e-47
1.23944718172e-48
3.2768404485551e-48
2.7697906647718e-49
7.3364522939174e-49
6.1858077528284e-50
1.6389178119966e-49
1.3586329249697e-50
3.6684309149905e-50
3.4879466963007e-51
7.8203253181137e-51
2.5594765648635e-51
0
0
0
0
0
0
0
0
3.2326094647614e-40
9.1590521171221e-41
4.2627763742997e-25
1.9282302525483e-25
2.3283679793152e-23
1.0600303390467e-23
6.2233759894868e-22
2.8548464017689e-22
1.0815264656499e-20
5.0036453064534e-21
1.372624396452e-19
6.4071619608973e-20
1.3589127428926e-18
6.3951516821412e-19
1.1005164519989e-17
5.2135941617931e-18
7.5266027263024e-17
3.5863878987943e-17
4.4358581376498e-16
2.1352875624647e-16
2.2084938011011e-15
1.0900894912185e-15
8.8845754039511e-15
4.6336139584419e-15
2.643719984848e-14
1.4975145199376e-14
6.123849321671e-14
3.5453757800847e-14
1.4789751311793e-13
6.6929848237752e-14
9.6589525434613e-13
2.1182261858452e-13
2.4971951466834e-11
2.8728224509395e-12
2.6634078141182e-10
9.1990644559875e-11
1.6622372603255e-09
8.2775343898264e-10
1.3250955803772e-09
1.9514057948137e-09
8.0912612995592e-10
1.4957388846085e-09
5.3226379302835e-10
9.8223776847181e-10
3.9068543606505e-10
6.9307713906047e-10
2.8916036492162e-10
5.146247007366e-10
1.880813917312e-10
3.6011196627193e-10
9.0946157865102e-11
2.0690543100772e-10
2.6700673049806e-11
8.2562769579818e-11
4.3810707526871e-12
1.960105904667e-11
6.8628086366232e-13
3.1078628940203e-12
1.7157108072595e-13
5.2888417756072e-13
6.7332507183365e-14
1.2132385004288e-13
3.3439969020608e-14
4.3596630890215e-14
1.7113927743784e-14
2.0854127012992e-14
8.6679096773251e-15
1.0577789377998e-14
4.287233005873e-15
5.36967723581e-15
2.0612207636159e-15
2.6716607716976e-15
9.6406319117857e-16
1.2938062820137e-15
4.3917911301714e-16
6.0944462232638e-16
1.94129279876e-16
2.7890147566111e-16
8.2305126387591e-17
1.2314763858363e-16
3.290227486399e-17
5.1760698912114e-17
1.2208725660806e-17
2.038068099133e-17
4.1796941726629e-18
7.4325361506372e-18
1.3310919011343e-18
2.5093677889696e-18
4.0187891068349e-19
7.9351081661003e-19
1.1736754919772e-19
2.3932717961654e-19
3.3604784383077e-20
7.0001149889667e-20
9.4861549108146e-21
2.006498607975e-20
2.6429876559296e-21
5.6626469961687e-21
7.2679060905893e-22
1.5758560194946e-21
1.9733678378869e-22
4.3273742184594e-22
5.2952947686974e-23
1.1735073416921e-22
1.4057761824295e-23
3.1457771880478e-23
3.6956732760481e-24
8.3441307495448e-24
9.6283488255424e-25
2.191908289665e-24
2.487496421443e-25
5.7064741877657e-25
6.3761938614472e-26
1.4732840712249e-25
1.6224110367645e-26
3.774107365713e-26
4.0997024160135e-27
9.5975880026011e-27
1.0292220528259e-27
2.4239291804229e-27
2.5679572269572e-28
6.0821765381996e-28
6.3698705934714e-29
1.5168211872993e-28
1.5713292064048e-29
3.7608571885901e-29
3.8558149540095e-30
9.2735254203485e-30
9.4142696063691e-31
2.2747104302546e-30
2.2875941367873e-31
5.5518625841055e-31
5.533322951108e-32
1.3485972452484e-31
1.3325813524828e-32
3.260985577478e-32
3.1958173198894e-33
7.8509797428386e-33
7.6335220422494e-34
1.8822896422778e-33
1.8163188456616e-34
4.4948007141809e-34
4.3057428883012e-35
1.0692140366849e-34
1.0170765134512e-35
2.5340397577283e-35
2.3942284065185e-36
5.9843504577982e-36
5.617426655409e-37
1.4084193111931e-36
1.3137702684818e-37
3.3037822333458e-37
3.0630850324945e-38
7.725122194942e-38
7.1203450514272e-39
1.8007812109262e-38
1.6503942186614e-39
4.1852624783583e-39
3.8146882387935e-40
9.6991277526585e-40
8.7933234343289e-41
2.2414585638757e-40
2.0216486314412e-41
5.1660017307332e-41
4.6360821047881e-42
1.1875174159232e-41
1.0605273563616e-42
2.7228332869518e-42
2.420186754887e-43
6.2277344166539e-43
5.5101269036738e-44
1.4210124202384e-43
1.2516650998927e-44
3.2348471004673e-44
2.8369738132183e-45
7.3472651826168e-45
6.4163612127051e-46
1.6651004813722e-45
1.4481473577434e-46
3.7655077788824e-46
3.2617792596057e-47
8.4976420399889e-47
7.3314311021217e-48
1.9138179231651e-47
1.646697519585e-48
4.3003532906128e-48
3.6370569699088e-49
9.6809383132781e-49
9.3938881988858e-50
2.0753084772382e-49
6.8398650108054e-50
0
0
0
0
0
0
0
0
8.3207257273759e-41
8.383263897239e-42
3.0099804040723e-24
1.297779512155e-24
1.519054207133e-22
6.6199369338702e-23
3.7775174108855e-21
1.6637590630182e-21
6.1339364761526e-20
2.7312314804288e-20
7.280792656278e-19
3.2789539630984e-19
6.7145095917736e-18
3.0587147273426e-18
5.0223487266782e-17
2.3107942544759e-17
3.1524730243405e-16
1.4598807800649e-16
1.7150504394597e-15
7.9641952726071e-16
8.1894101012609e-15
3.8310114026539e-15
3.3556071466466e-14
1.607194896333e-14
1.1201104816735e-13
5.8036944601754e-14
2.4447916549518e-13
1.4945094865215e-13
3.827213109281e-13
2.3532748650626e-13
9.8120607379644e-13
3.3123630345158e-13
1.1224794612972e-11
1.6645629191841e-12
3.0384540827023e-10
3.3615683884522e-11
3.4814702425237e-09
5.1912529946781e-10
2.5684977746133e-08
1.0238852736324e-08
2.3143443970651e-08
2.9274066635962e-08
1.3738986958291e-08
2.5370380036961e-08
8.0429987846983e-09
1.5939915740562e-08
4.9363014409845e-09
9.7675835786389e-09
3.0366632792662e-09
6.1355031654046e-09
1.5430077740396e-09
3.4918544889992e-09
5.1366637535801e-10
1.4990670593801e-09
9.3029157404398e-11
4.0233428295723e-10
1.286738148775e-11
6.5916206099756e-11
2.3471986830258e-12
1.0667084489223e-11
4.9007834527695e-13
1.9875438139786e-12
1.4021027109542e-13
3.9128037952798e-13
6.2255363915171e-14
9.8429020905603e-14
3.3420257317479e-14
3.9784665756399e-14
1.8417209052457e-14
2.0758790414453e-14
1.0000512066678e-14
1.1341058252182e-14
5.2880088383662e-15
6.175325185548e-15
2.7154040784059e-15
3.2932456561562e-15
1.3493721126566e-15
1.7060158306004e-15
6.4241608748345e-16
8.512691529498e-16
2.8804466294038e-16
4.0364666233033e-16
1.1928621463429e-16
1.78672232999e-16
4.4996914031617e-17
7.2608134748571e-17
1.545926993436e-17
2.6870702008907e-17
4.9165057139158e-18
9.1108723498922e-18
1.4846388650924e-18
2.8839266686571e-18
4.353022683175e-19
8.7195633918313e-19
1.254595619386e-19
2.5634615845224e-19
3.5675844301324e-20
7.3977496709345e-20
1.0009902098364e-20
2.1028119315646e-20
2.7707859014723e-21
5.8929174239859e-21
7.5711404920701e-22
1.6291217692519e-21
2.0444511934621e-22
4.4469660745342e-22
5.4616719889274e-23
1.1998429516942e-22
1.4447825630875e-23
3.2030993415009e-23
3.7872517049201e-24
8.4678051829068e-24
9.843685995855e-25
2.2183761264893e-24
2.5382807415408e-25
5.7627567119364e-25
6.49655375429e-26
1.4852258381802e-25
1.6511264840142e-26
3.7995626453812e-26
4.1687444073022e-27
9.6525976790827e-27
1.0459598125535e-27
2.4361064702297e-27
2.6088698526727e-28
6.1100614003708e-28
6.470650770964e-29
1.5234697823166e-28
1.5963244871267e-29
3.7773784909086e-29
3.9181580517446e-30
9.3161008716604e-30
9.5704334839997e-31
2.2859881180197e-30
2.3268255752651e-31
5.582265226893e-31
5.6320362421707e-32
1.3568652309857e-31
1.3574290050517e-32
3.2835147226466e-32
3.2583220805658e-33
7.9122024864427e-33
7.7905157886373e-34
1.8988325009145e-33
1.8556637437664e-34
4.5391700301333e-34
4.4040742631496e-35
1.0810155800955e-34
1.0415734326151e-35
2.5651586469178e-35
2.4550437289452e-36
6.0656953905683e-36
5.7678458554999e-37