/*--------------------------------*- C++ -*----------------------------------*\
  =========                 |
  \\      /  F ield         | OpenFOAM: The Open Source CFD Toolbox
   \\    /   O peration     | Website:  https://openfoam.org
    \\  /    A nd           | Version:  7
     \\/     M anipulation  |
\*---------------------------------------------------------------------------*/
FoamFile
{
    version     2.0;
    format      ascii;
    class       volScalarField;
    location    "1.1";
    object      alpha.water;
}
// * * * * * * * * * * * * * * * * * * * * * * * * * * * * * * * * * * * * * //

dimensions      [0 0 0 0 0 0 0];

internalField   nonuniform List<scalar> 
6000
(
0
0
0
0
0
0
0
0
0
0
0
0
0
0
0
0
0
0
0
0
0
0
0
0
0
0
0
0
0
0
0
0
0
0
0
0
0
0
0
0
0
0
0
0
0
0
0
0
0
0
0
0
0
0
0
0
0
0
0
0
0
0
0
0
0
0
0
0
0
0
0
0
0
0
0
0
0
0
0
0
0
0
0
0
0
0
0
0
0
0
0
0
0
0
0
0
0
0
0
0
0
0
0
0
0
0
0
0
0
0
0
0
0
0
0
0
0
0
0
0
0
0
0
0
0
0
0
0
0
0
0
0
0
0
0
0
0
0
0
0
0
0
0
0
0
0
0
0
0
0
0
0
0
0
0
0
0
0
0
0
0
0
0
0
0
0
0
0
0
0
0
0
0
0
0
0
0
0
0
0
0
0
0
0
0
0
0
0
0
0
0
0
0
0
0
0
0
0
0
0
0
0
0
0
0
0
0
0
0
0
0
0
0
0
0
0
0
0
0
0
0
0
0
0
0
0
0
0
0
0
0
0
0
0
0
0
0
0
0
0
0
0
0
0
0
0
0
0
0
0
0
0
0
0
0
0
0
0
0
0
0
0
0
0
0
0
0
0
0
0
0
0
0
0
0
0
0
0
0
0
0
0
0
0
0
0
0
0
0
0
0
0
0
0
0
0
0
0
0
0
0
0
0
0
0
0
0
0
0
0
0
0
0
0
0
0
0
5.617343524903e-53
9.6970633129213e-52
7.6348556117553e-51
5.0352089606195e-50
2.2052162892005e-49
1.6782004409616e-48
6.7008237830547e-48
2.8604015468516e-47
1.141858166118e-46
4.7647531810906e-46
5.3610526024086e-45
2.2757771390167e-43
4.4609562352268e-42
1.0333725883633e-41
2.3269546397164e-41
5.1556088360683e-41
4.7561626064517e-41
4.9206091663272e-41
4.2510947439036e-41
3.3461624032132e-41
2.195109358076e-41
1.0963851703881e-41
3.0936576797719e-42
4.7000444427827e-43
3.5406685095986e-44
4.2427706378453e-45
7.5000459467291e-46
3.8954587320593e-46
6.3065856615345e-47
8.1782871524443e-48
1.3240244021048e-48
5.3832683928665e-49
5.6958957490952e-50
9.1501931055067e-51
2.4785064728119e-51
3.1685028084125e-52
1.2467563023063e-52
1.2659952335457e-53
2.2033224611358e-54
9.1258961745712e-55
9.0971105005446e-56
3.4633795103272e-56
3.5278900460272e-57
6.1382256065154e-58
2.5120405414681e-58
2.5329096862105e-59
9.0872293969432e-60
9.682918708226e-61
1.6970711063509e-61
6.8938121670533e-62
6.9920792620321e-63
2.4879334780886e-63
2.668853664534e-64
4.6493576680678e-65
2.2706224851666e-65
2.5160413455648e-66
7.431927998265e-67
7.6550989989551e-68
1.3364375165595e-68
5.0171029433922e-69
5.4864482095147e-70
6.5858524560482e-71
1.7622968010698e-71
3.4507193965951e-72
6.4396104103618e-73
3.0211678971223e-73
8.3281223794509e-74
1.9198752346221e-74
3.6601423615195e-75
2.7565933199459e-76
4.4628493591087e-77
2.0231150697549e-77
5.1018311727996e-78
4.0957430188158e-79
6.7457215805543e-80
3.0389757419985e-80
8.3172328762031e-81
1.9023605584637e-81
3.7033238224907e-82
2.7397835839663e-83
1.090812268633e-83
2.5103870366451e-84
1.0227894590237e-84
0
0
0
0
0
0
0
0
0
3.1665800484112e-36
6.6819117752306e-53
0
4.8862414804309e-35
-1.8640447968093e-45
0
0
0
6.6281909867441e-37
1.1120421364944e-51
5.6378630603508e-51
3.7234431343115e-50
1.7294967125989e-49
4.6677764807979e-39
7.4156648932916e-48
2.217158289792e-47
8.9575094432617e-47
3.7736230534319e-46
3.918828132165e-45
1.4424858205129e-43
3.1276317449024e-43
1.8003572985057e-40
2.4462142603329e-41
3.7454936196453e-41
3.6269458409176e-40
5.1146554789314e-41
1.7973431190757e-39
3.4023735563105e-41
2.305166230278e-41
2.0872092640901e-41
1.1490091020057e-42
5.7741964237326e-43
4.4289995542909e-43
1.6595065444662e-44
3.7860388153084e-45
2.1539801162913e-45
2.7440182253505e-46
3.9774774223243e-47
7.8188401700153e-48
1.2512366200328e-46
4.260578206455e-49
6.066831224831e-50
3.5379434895699e-49
2.2312546660388e-51
2.4059086105614e-49
8.6645329279406e-53
1.6339896418875e-53
2.9578706896054e-51
6.3570062433073e-55
2.2527323063623e-52
2.4482436675972e-56
6.489412163944e-57
3.3659757644112e-54
1.7869749192754e-58
2.694698175547e-55
6.8189209809539e-60
1.2847016765046e-60
3.968342682205e-57
4.9651885145997e-62
3.0477757903011e-58
1.8902524550742e-63
3.5556925765034e-64
1.4754329009542e-59
9.7086611044928e-64
8.5926838975423e-61
5.411462342601e-67
1.0180611709851e-67
3.7839490084377e-62
2.5132189281922e-66
7.156026446699e-70
8.3109401765806e-68
2.6220599073437e-71
8.1456979698421e-67
7.4622693902514e-66
1.6160627303838e-66
2.1149756699463e-67
7.2331281306337e-67
4.5434057597717e-71
3.4192930440814e-76
7.454380856417e-70
4.6491970307176e-70
2.780571473919e-78
4.3543666523185e-72
3.7016453355848e-71
5.7159937816212e-72
7.0331661151799e-73
2.1143482863495e-72
1.3377787521597e-76
3.0214494863499e-73
1.0960095370907e-74
2.3502564883978e-74
0
0
0
0
0
0
0
3.6362888540029e-25
1.716830476892e-23
3.8728761511265e-22
5.4798504023391e-21
5.3738714642836e-20
3.7411175179268e-19
2.2548130527039e-18
1.6658964301215e-17
1.3293818001545e-16
8.4860895298167e-16
4.1622734304694e-15
1.5266915345135e-14
4.1135629722322e-14
8.5137340651618e-14
1.4737401433869e-13
2.3274849186619e-13
3.5036710757241e-13
4.8675175874972e-13
5.6872353027488e-13
5.7156027667555e-13
5.496293771601e-13
4.8652379338803e-13
3.7174299903568e-13
2.2895027001431e-13
1.0525103462595e-13
3.4495822358479e-14
8.6565591764212e-15
2.0821246877306e-15
5.790979309647e-16
1.8600617755296e-16
6.4019474163708e-17
2.2409497653094e-17
7.7926045953014e-18
2.6678410909217e-18
8.9408781731773e-19
2.9082472251268e-19
9.0852913736414e-20
2.7080394304425e-20
7.7207447738967e-21
2.1281949631087e-21
5.7444401577049e-22
1.5314305601459e-22
4.0441911988513e-23
1.0576131968035e-23
2.7371286835021e-24
7.0114706039982e-25
1.7792104590214e-25
4.4767295309462e-26
1.1177406899963e-26
2.7708403590161e-27
6.8228625503246e-28
1.669477002237e-28
4.0608315142809e-29
9.8224362224436e-30
2.3633504301012e-30
5.6580087059174e-31
1.3481447530157e-31
3.1977778680323e-32
7.5525240448665e-33
1.7764536541075e-33
4.1621038948357e-34
9.7149972695563e-35
2.2594949527701e-35
5.2369985293221e-36
1.2098041983903e-36
2.785893920695e-37
6.3956204529976e-38
1.4639220707366e-38
3.3413041827003e-39
7.6053598976843e-40
1.7265122952971e-40
3.9093441602166e-41
8.8299560028897e-42
1.9896089321819e-42
4.4726385685199e-43
1.0031767958951e-43
2.245111380521e-44
5.0138664049484e-45
1.1173994549498e-45
2.4852501764629e-46
5.5167295986583e-47
1.222266992046e-47
2.7029942736273e-48
5.9667758128625e-49
1.3148307967176e-49
2.8923756626903e-50
6.352034222351e-51
1.3927035779559e-51
3.0489317096295e-52
6.657849540395e-53
1.4689044914561e-53
2.8264473082492e-54
1.1160893376988e-54
0
0
0
0
0
0
3.3652389399565e-25
2.2770626789257e-23
7.0313096729552e-22
1.3613653985664e-20
1.8540649073897e-19
1.8752958043497e-18
1.4011812513025e-17
7.9172597504408e-17
3.7961284081966e-16
1.9723072349825e-15
1.5346108648817e-14
1.0642722402588e-13
4.8863760980407e-13
1.6907910374117e-12
3.0191737971508e-12
3.7933348344382e-12
4.8952301552898e-12
7.0327442123635e-12
1.0128944894922e-11
1.2411069793872e-11
1.2649105586868e-11
1.2200022631779e-11
1.0774568296591e-11
8.1563530088282e-12
4.9481747495633e-12
2.2475282757988e-12
7.5091964382744e-13
2.0723162181898e-13
5.8581351171919e-14
1.8981527758667e-14
6.8174847602961e-15
2.5504657076832e-15
9.5679617165876e-16
3.5428755418192e-16
1.2891002147604e-16
4.5957087135545e-17
1.5933264007646e-17
5.3089164163796e-18
1.6820547872893e-18
5.0524446921396e-19
1.4491093435867e-19
4.0235399670052e-20
1.0957967275714e-20
2.9493281411544e-21
7.8602108179794e-22
2.0731180890251e-22
5.4085612120306e-23
1.3962829060608e-23
3.5702441251027e-24
9.0503808181426e-25
2.2761684018237e-25
5.6826863341016e-26
1.409011018673e-26
3.4710948839361e-27
8.4991687138009e-28
2.0691716206217e-28
5.0103073270896e-29
1.2069924772352e-29
2.8935464260051e-30
6.9047155800896e-31
1.6403854904479e-31
3.8807769487571e-32
9.144189961225e-33
2.1463510662676e-33
5.0194372649057e-34
1.1696960082465e-34
2.7165347735062e-35
6.2883749216877e-36
1.4510938197787e-36
3.3383832200515e-37
7.6578567371809e-38
1.7516712769395e-38
3.995892056339e-39
9.0913792690263e-40
2.0631826202015e-40
4.6705973779186e-41
1.0547929617859e-41
2.3765858892264e-42
5.3427049784243e-43
1.1984465842593e-43
2.6825821707288e-44
5.992251413023e-45
1.3358393892624e-45
2.9721392927895e-46
6.6002014767956e-47
1.4629847241941e-47
3.236960929719e-48
7.1494082479425e-49
1.5763530536901e-49
3.4701080798216e-50
7.6191497435569e-51
1.6896435462815e-51
3.2758589853287e-52
1.2940116834896e-52
0
0
0
0
0
1.4550494527668e-25
1.373310179135e-23
5.3705917164979e-22
1.2578827017443e-20
2.0612000442946e-19
2.5623966010191e-18
2.5109789057878e-17
1.9620995112239e-16
1.2037052501425e-15
5.6012346765013e-15
2.1572253004693e-14
9.4083832059302e-14
5.7715238318185e-13
8.1295431671231e-12
4.6730596263174e-11
1.0580676579869e-10
1.1779542790872e-10
1.2273292850749e-10
1.4369783978806e-10
1.7739163812128e-10
1.9776545956577e-10
1.9736504599871e-10
1.8519741826557e-10
1.5220601800027e-10
1.0051666482746e-10
5.1075951097172e-11
1.9785229169547e-11
6.3018247683503e-12
1.9633564970244e-12
6.8447465990308e-13
2.6536199166938e-13
1.0803186146829e-13
4.4276441225361e-14
1.7898934631692e-14
7.0966113707996e-15
2.7626011705088e-15
1.0560624602852e-15
3.9402883729278e-16
1.4165842229698e-16
4.833398054336e-17
1.54967544175e-17
4.6755296190287e-18
1.3448677671838e-18
3.7538701806207e-19
1.0307363344694e-19
2.8004796510122e-20
7.5322459997831e-21
2.0034602109673e-21
5.2684225982866e-22
1.3706188266048e-22
3.5313437471863e-23
9.0189785680383e-24
2.2849521248938e-24
5.7456197769422e-25
1.4346285638872e-25
3.5585226930774e-26
8.7719798510437e-27
2.1496988689362e-27
5.2390121247858e-28
1.2701047470809e-28
3.0638213733053e-29
7.3557480207378e-30
1.7580327188419e-30
4.1836311650664e-31
9.9149148636007e-32
2.3405101006117e-32
5.5041377530711e-33
1.2897089509246e-33
3.0114782715221e-34
7.0082773282753e-35
1.6257007527764e-35
3.7594007959786e-36
8.6674870049579e-37
1.9925506370997e-37
4.5678265728119e-38
1.0443210236198e-38
2.3813351684934e-39
5.4163287322737e-40
1.2289140531163e-40
2.7816488080728e-41
6.2817124122631e-42
1.4153959107941e-42
3.1822165499932e-43
7.1393700970895e-44
1.5984302092509e-44
3.5715372257289e-45
7.964663570286e-46
1.7727702327846e-46
3.9385063382544e-47
8.7341766003685e-48
1.9336561782741e-48
4.2695680310561e-49
9.5185987983121e-50
1.8593868233833e-50
7.3516331560429e-51
0
0
0
0
0
3.5432262954064e-24
2.2987295967396e-22
7.0955611584679e-21
1.3998504548894e-19
1.9990744795243e-18
2.2210901973226e-17
2.011891373078e-16
1.5186356097947e-15
9.5749507389757e-15
4.860726830839e-14
1.8818215184627e-13
5.8896766937088e-13
2.0210974736737e-12
1.0011270923142e-11
8.4356705992598e-11
3.1729348367468e-09
1.0234714898016e-08
9.7906600264143e-09
6.6963717620776e-09
5.1320201722883e-09
4.4940227851619e-09
4.0501392327849e-09
3.488802563705e-09
2.6231925592703e-09
1.5210123669335e-09
5.8258170752898e-10
1.3484132298877e-10
2.7893802999882e-11
9.3937614627867e-12
4.1716801720257e-12
1.9729429964601e-12
9.2467705029504e-13
4.2253323104148e-13
1.878920093456e-13
8.1477640775243e-14
3.456130664086e-14
1.4360558287362e-14
5.8233822093476e-15
2.2790734596344e-15
8.4663973674644e-16
2.9397481265724e-16
9.4845385198215e-17
2.8665286889594e-17
8.2709827027428e-18
2.3241287500845e-18
6.4395083889873e-19
1.7660777327622e-19
4.7916745318426e-20
1.2848267891659e-20
3.4048646819269e-21
8.9254929412622e-22
2.3168949310095e-22
5.9609389506847e-23
1.521091642725e-23
3.8518196230514e-24
9.683967860739e-25
2.4182789916839e-25
6.000643548224e-26
1.4800768332626e-26
3.6300066136025e-27
8.8551510580691e-28
2.1491532996476e-28
5.1907411531746e-29
1.2479034088748e-29
2.9868510813852e-30
7.1188801421359e-31
1.6898714225489e-31
3.9958790901605e-32
9.4135958415196e-33
2.209767657255e-33
5.169454932523e-34
1.2053285997568e-34
2.8014367572336e-35
6.4911225289999e-36
1.4995761618628e-36
3.4543828788491e-37
7.9353613730373e-38
1.8180091912111e-38
4.1542759505969e-39
9.4688965332664e-40
2.1529862218348e-40
4.8837386916289e-41
1.1052557405459e-41
2.4957484246247e-42
5.6233308393106e-43
1.2643495448042e-43
2.8369134768871e-44
6.3526370341034e-45
1.4197564090092e-45
3.1669721393301e-46
7.0518191005037e-47
1.5659462001483e-47
3.5099721739044e-48
6.9075387863038e-49
2.7349225765609e-49
0
0
0
0
2.9986714580403e-38
4.0389724295782e-23
2.2439896566557e-21
6.1070524728439e-20
1.0818073520046e-18
1.4008973433183e-17
1.4159085080977e-16
1.1709452339165e-15
8.1795720954234e-15
4.9385496529023e-14
2.539423959694e-13
1.0766389153667e-12
3.4436008534972e-12
8.3939504241975e-12
1.8575128266848e-11
7.8254515075305e-11
1.6236897423752e-09
3.6393984252507e-08
3.1882148371505e-07
2.7945991373049e-07
1.8300719801168e-07
1.2107426758426e-07
8.483250592136e-08
6.3904461754597e-08
4.4985199767829e-08
2.5621516865508e-08
9.7387189394643e-09
1.8916763177562e-09
1.5599135846994e-10
2.0392092435852e-11
1.2081183155572e-11
8.0342394511553e-12
4.5569422051536e-12
2.3714918507262e-12
1.1908014989857e-12
5.7978847397926e-13
2.7412512362823e-13
1.2616889609943e-13
5.6493918166637e-14
2.4411092171731e-14
1.0018994415338e-14
3.8335580945222e-15
1.3495036151154e-15
4.3704599332903e-16
1.3223139953323e-16
3.8284483948402e-17
1.0831476496099e-17
3.0270264246425e-18
8.3740428794767e-19
2.2903759134573e-19
6.1876930671384e-20
1.6517106192774e-20
4.3607945943118e-21
1.1399811978534e-21
2.953326303725e-22
7.5874682599943e-23
1.9341534341612e-23
4.8944467461275e-24
1.2300620162466e-24
3.0713986522234e-25
7.6223629581125e-26
1.8807486319597e-26
4.6151944270137e-27
1.1266436056603e-27
2.7367162842045e-28
6.6163780025281e-29
1.5923958573056e-29
3.8159960187691e-30
9.1069018675589e-31
2.1647781755601e-31
5.1263142293161e-32
1.209513246898e-32
2.8437405187371e-33
6.6634600534769e-34
1.5562997064085e-34
3.6234328951767e-35
8.4106159765119e-36
1.9465266498052e-36
4.4922073061493e-37
1.033869582227e-37
2.3730987226828e-38
5.433072922231e-39
1.2407627296788e-39
2.8266858108705e-40
6.4245466340544e-41
1.4568427487147e-41
3.2962173859416e-42
7.4418079190954e-43
1.6765857088334e-43
3.7694859788024e-44
8.4580042372192e-45
1.8942593298533e-45
4.2305808140236e-46
9.5342083857666e-47
1.8900828849157e-47
7.4968161757587e-48
0
0
0
0
-1.3970741105633e-50
2.8509239559241e-22
1.4661075095412e-20
3.7181023526004e-19
6.1636271246892e-18
7.4782431458306e-17
7.0572457084867e-16
5.4049322255735e-15
3.472394931758e-14
1.9327882892607e-13
9.4742801805898e-13
4.014877251867e-12
1.4392452132911e-11
3.6332053653134e-11
5.821731460419e-11
1.0195196870127e-10
7.2012389108007e-10
1.9976477057287e-08
2.319657280387e-07
4.1512380125425e-06
4.589019713356e-06
3.2775580359776e-06
1.9748157704659e-06
1.1934721670602e-06
7.5165861926043e-07
4.2627086801206e-07
1.7643467252914e-07
4.0472149129929e-08
3.4695739868321e-09
1.6229340731787e-10
3.5926075894892e-11
1.6836023196693e-11
1.1767207093773e-11
8.1174840284239e-12
4.808036968692e-12
2.6636040310159e-12
1.4283572456057e-12
7.4300004590386e-13
3.7466243928678e-13
1.8199795911969e-13
8.3962866870407e-14
3.6063148494471e-14
1.4148683748313e-14
5.0222897279057e-15
1.6246443776657e-15
4.9042933295634e-16
1.422646607474e-16
4.0509180834048e-17
1.1416404546582e-17
3.1842537396382e-18
8.7733556138897e-19
2.3862718315765e-19
6.4117007095922e-20
1.7038968608341e-20
4.4833251208221e-21
1.1689659843107e-21
3.0222175346412e-22
7.7518977326628e-23
1.9736137531878e-23
4.9897949055903e-24
1.2532739050924e-24
3.1283221146626e-25
7.7628925198635e-26
1.9156400975988e-26
4.7022195270719e-27
1.1484208264683e-27
2.7913236211054e-28
6.7534282744807e-29
1.6267858609596e-29
3.9021975622703e-30
9.3225779128673e-31
2.2186088575239e-31
5.2602798836513e-32
1.2427437725695e-32
2.925879237379e-33
6.865737448005e-34
1.6059229970146e-34
3.7446978247124e-35
8.7057958747875e-36
2.0180988693478e-36
4.6650786988929e-37
1.0754649948071e-37
2.4728090088523e-38
5.6712168189554e-39
1.2974361657565e-39
2.9610853331159e-40
6.7421847182562e-41
1.5316636859999e-41
3.4718916585201e-42
7.8529864804736e-43
1.7725209721061e-43
3.9929390515656e-44
8.9691761734241e-45
2.0324217838654e-45
4.0583943765013e-46
1.6131066739188e-46
0
0
0
0
0
1.4344535201019e-21
7.0586428738152e-20
1.7058543635445e-18
2.6908571830649e-17
3.1071057207026e-16
2.7934330810004e-15
2.0293013655208e-14
1.2214493336601e-13
6.2561766329732e-13
2.8150777905555e-12
1.1362320498025e-11
4.1030212718686e-11
1.2278812511275e-10
2.2238707677048e-10
2.6143724585735e-10
5.7708820504085e-10
6.2247383266078e-09
1.303611283695e-07
1.9185809167408e-06
3.0843721384339e-05
5.3258945808874e-05
3.6865428715003e-05
2.1788419802314e-05
1.323193419054e-05
7.518259950744e-06
3.4135215582465e-06
9.6544553887495e-07
1.1889924962521e-07
4.5215599390388e-09
4.2792730601789e-10
1.1625743316192e-10
3.1516832414745e-11
1.6025008529276e-11
1.1836397686552e-11
8.3659108033963e-12
5.1793543542275e-12
3.0528632271009e-12
1.7541683924808e-12
9.7281779595885e-13
5.1254626761677e-13
2.511765537936e-13
1.1184075886178e-13
4.4422109395742e-14
1.5688166957573e-14
5.0192969260425e-15
1.5063640831965e-15
4.3834561959029e-16
1.2588720044289e-16
3.580266331321e-17
1.0062633031078e-17
2.7904076821824e-18
7.6357629495185e-19
2.064206823539e-19
5.5195163720033e-20
1.4612519627183e-20
3.8331532127726e-21
9.9693299963726e-22
2.5721333067891e-22
6.5865001765222e-23
1.6747320418761e-23
4.2300170383271e-24
1.0617076900231e-24
2.6489823100669e-25
6.5719890742604e-26
1.6217337498419e-26
3.9814259031388e-27
9.7269513030036e-28
2.3653135621955e-28
5.7261464082579e-29
1.3803191568126e-29
3.3137204308736e-30
7.9239609650365e-31
1.8876657441468e-31
4.4804965173737e-32
1.0597504462728e-32
2.4981131447998e-33
5.8695260010223e-34
1.3747534759799e-34
3.2101343520379e-35
7.4737985224324e-36
1.7350829617707e-36
4.0169694340272e-37
9.2749800009714e-38
2.1359865315215e-38
4.9066862829274e-39
1.1243820503068e-39
2.5704279202185e-40
5.8626171918151e-41
1.3341351025439e-41
3.0293802281409e-42
6.8645328927825e-43
1.5509418555511e-43
3.5339587626982e-44
7.1078026627009e-45
2.8319226957353e-45
0
0
0
0
-4.0783152924991e-57
5.5288988567357e-21
2.6515535149819e-19
6.2262895400072e-18
9.5115691218045e-17
1.0609707508833e-15
9.1444136173433e-15
6.3246603899784e-14
3.6087114094921e-13
1.7328172751307e-12
7.1416020232264e-12
2.6120249899688e-11
8.9489896004988e-11
2.9360104760914e-10
7.6203357190024e-10
1.2604907278058e-09
1.7205378445636e-09
5.8484193657174e-09
5.7301769932094e-08
7.5495258143263e-07
1.251804795342e-05
0.00012381810661883
0.00046492058420248
0.00034650255945332
0.00021434830509214
0.00013218107401911
6.7909482893332e-05
2.3896285384201e-05
4.1424266531418e-06
2.2265657766855e-07
1.0623458155419e-08
2.090955334359e-09
4.5462004659847e-10
9.9817393087763e-11
2.8296575979563e-11
1.616257731077e-11
1.2667865568243e-11
9.3447685650882e-12
6.1704595528027e-12
3.8935411848923e-12
2.3520105861625e-12
1.3255740968235e-12
6.7684566215629e-13
3.0473781696909e-13
1.1940307091486e-13
4.1209831175764e-14
1.2988780050819e-14
3.8983788128374e-15
1.1452871425341e-15
3.324785189153e-16
9.5363844399567e-17
2.6979838690689e-17
7.5260751879026e-18
2.0716987719938e-18
5.6343438659227e-19
1.5156888855187e-19
4.0366705544995e-20
1.065131201917e-20
2.786260851825e-21
7.2297108656448e-22
1.8617366892893e-22
4.7600355515985e-23
1.208854656758e-23
3.0504961514456e-24
7.6514780165915e-25
1.9082351694776e-25
4.7331716439383e-26
1.1679348938497e-26
2.8677051267229e-27
7.0080221590998e-28
1.7048657504695e-28
4.1295334552482e-29
9.9610365818525e-30
2.3931633897931e-30
5.7275818209138e-31
1.3657273841721e-31
3.2449593292931e-32
7.6835557642924e-33
1.8133221596577e-33
4.2657600826195e-34
1.0003981520866e-34
2.3390961059143e-35
5.4533500463887e-36
1.2678212868245e-36
2.9394716671881e-37
6.7972375636114e-38
1.5677657401017e-38
3.6070108115769e-39
8.2786924194494e-40
1.8956290763212e-40
4.3305943740494e-41
9.8719373659436e-42
2.2436353118727e-42
5.1412040107143e-43
1.0415608222702e-43
4.1609112496329e-44
0
0
0
0
0
1.6691900991226e-20
7.9273896201743e-19
1.8366043080438e-17
2.7581334745351e-16
3.0019220755321e-15
2.5293049201758e-14
1.7103360629522e-13
9.4303298923116e-13
4.2771007968879e-12
1.634549299215e-11
5.4013225887936e-11
1.6326794387201e-10
5.2133682332985e-10
1.9822177893059e-09
6.8336798946769e-09
1.5829248041451e-08
2.9839566223823e-08
9.1676747577551e-08
6.5780269812842e-07
5.6996452117349e-06
7.0658545158718e-05
0.00054761109637551
0.0030807611992426
0.0028457082350557
0.0020476555700993
0.0012839340171293
0.0005561965939639
0.00012721395047922
9.5445986308494e-06
3.1396630316226e-07
4.848699585129e-08
1.1166199489591e-08
2.1163671267982e-09
4.1406474455091e-10
9.2614640355645e-11
2.728697067675e-11
1.8663852043686e-11
1.5962440954e-11
1.2327390434828e-11
8.5540596310294e-12
5.5082668822551e-12
3.208907347214e-12
1.6329545125395e-12
7.1337137776458e-13
2.6975196918058e-13
9.1134662842464e-14
2.8670787640614e-14
8.6885962887057e-15
2.5824525961475e-15
7.5681453639312e-16
2.1866723052437e-16
6.225358301027e-17
1.7470422002622e-17
4.8380879337692e-18
1.323754847996e-18
3.582368846201e-19
9.5971427121677e-20
2.5470578774628e-20
6.7009320674582e-21
1.7485391583115e-21
4.5277099362339e-22
1.1639716004809e-22
2.9719734831664e-23
7.5395887881457e-24
1.9010670038375e-24
4.7657180771538e-25
1.1881283677117e-25
2.946561521277e-26
7.270914361175e-27
1.7855840645973e-27
4.3649440821098e-28
1.0623489974389e-28
2.5746797474411e-29
6.2146814101466e-30
1.4942444813717e-30
3.5792729332277e-31
8.5427495725622e-32
2.0318236858226e-32
4.8162870783154e-33
1.1379580094261e-33
2.6802443810656e-34
6.293627739491e-35
1.4734929676395e-35
3.4399736899079e-36
8.0086601875653e-37
1.8595081200289e-37
4.306295064711e-38
9.9473949014036e-39
2.2921649619737e-39
5.269146831076e-40
1.2085138114836e-40
2.7632756978816e-41
6.3685536146564e-42
1.2996950782565e-42
5.2074619072054e-43
0
0
0
2.550377617455e-51
1.1362907779315e-35
3.7544505609637e-20
1.7964780400625e-18
4.1606671583918e-17
6.2153456925295e-16
6.698817881778e-15
5.5731595866093e-14
3.7026343142704e-13
2.0029963453825e-12
9.1121900636318e-12
3.412333717942e-11
1.0530603361929e-10
2.9278976816455e-10
9.1532055571446e-10
4.2116179351678e-09
2.4130850691484e-08
1.0655802125917e-07
2.8586111706724e-07
6.4338316804827e-07
1.9086984159012e-06
9.387134320105e-06
7.0313073187039e-05
0.0005641245357954
0.0041022852373519
0.021109840498281
0.032673812072142
0.026975219336902
0.013880857527875
0.0034334346357922
0.00021760277577574
7.0473407540988e-06
1.2665991340285e-06
2.8047106559806e-07
5.2700935562055e-08
9.917337514998e-09
1.8850975775874e-09
3.7149008702498e-10
8.723558263342e-11
2.8447930515697e-11
2.6259450690236e-11
2.4624097203545e-11
1.909496242305e-11
1.2323032124576e-11
6.9071080344327e-12
3.3538753083775e-12
1.408569319552e-12
5.2025456956272e-13
1.7455015079478e-13
5.5194067609652e-14
1.689953861273e-14
5.0748166976559e-15
1.4997651136913e-15
4.3631601728472e-16
1.2498900529936e-16
3.5288421250819e-17
9.8315176825994e-18
2.7062090842534e-18
7.3671896837998e-19
1.9852413106773e-19
5.2992126289842e-20
1.4020789693021e-20
3.6791113773367e-21
9.5795122979898e-22
2.4761232820834e-22
6.3563609629969e-23
1.6211175198227e-23
4.1090152806161e-24
1.0354120617181e-24
2.5945650546366e-25
6.467039825109e-26
1.603766190722e-26
3.9579305148544e-27
9.7224755899387e-28
2.3776656809723e-28
5.7898574819663e-29
1.4041091185871e-29
3.3917028077853e-30
8.1617338861102e-31
1.9568369270665e-31
4.675097665161e-32
1.1131241191992e-32
2.6415774133771e-33
6.2488075911469e-34
1.4736341510376e-34
3.4648401601699e-35
8.1230256646413e-36
1.8990289963358e-36
4.4275215234332e-37
1.0295310931663e-37
2.3878162379257e-38
5.5242563643556e-39
1.2750230733234e-39
2.9335140254294e-40
6.8011537445121e-41
1.3983666200837e-41
5.621034919357e-42
0
0
0
2.8257787178117e-50
2.8609038470788e-35
5.329190190842e-20
2.614059529496e-18
6.1559617216324e-17
9.2921481670005e-16
1.0096276675521e-14
8.3859114945365e-14
5.518320717987e-13
2.9502791115953e-12
1.2960206029412e-11
4.7846298374e-11
1.5608963669529e-10
4.7353794994665e-10
1.7856958391448e-09
9.7830220137296e-09
6.176788904071e-08
3.7758015681048e-07
1.7764244466618e-06
5.297810546218e-06
1.3413618421824e-05
4.1925147539098e-05
0.00018707528442684
0.0010905548583458
0.0071422416516875
0.046189952941408
0.23297047608746
0.44065364221098
0.3158007576804
0.08462694260247
0.0053943506810964
0.00017554327305415
3.3223037930106e-05
6.8558073110454e-06
1.2877116117041e-06
2.4184070522248e-07
4.5452848543607e-08
8.5686905076424e-09
1.6396413816588e-09
3.3083690980768e-10
8.3835673245673e-11
5.2583144317877e-11
4.8101681998195e-11
3.8175967662904e-11
2.389282279802e-11
1.2784330285435e-11
5.9508172279964e-12
2.4173095374587e-12
8.7705373119931e-13
2.9359557871267e-13
9.3501021351535e-14
2.8909696996805e-14
8.7591384089461e-15
2.607857636748e-15
7.6358316889058e-16
2.2006620843019e-16
6.250385104398e-17
1.7518108096586e-17
4.8507512765181e-18
1.3283291837301e-18
3.6003319259273e-19
9.6657297696009e-20
2.5719329131253e-20
6.7867933590503e-21
1.7769318307246e-21
4.618243068715e-22
1.1919610487225e-22
3.0562525520693e-23
7.7876496236731e-24
1.9726448866833e-24
4.968678543332e-25
1.2447914238133e-25
3.1025684232421e-26
7.6950733433385e-27
1.8995959697718e-27
4.6682157075249e-28
1.1422474160977e-28
2.7833143145761e-29
6.7550041721985e-30
1.6331064788041e-30
3.9335909092308e-31
9.4407480332077e-32
2.2579773244493e-32
5.3824388828029e-33
1.2788883239429e-33
3.029180651779e-34
7.1531846744265e-35
1.6842086102686e-35
3.9541481695526e-36
9.2577855319461e-37
2.161689668575e-37
5.0343387093127e-38
1.1695400602569e-38
2.7081724569886e-39
6.3174276332087e-40
1.3088666302037e-40
5.2801059379477e-41
0
0
0
1.1437180092462e-50
1.4234446005611e-50
5.3426807895578e-20
2.6447957496114e-18
6.2823767159726e-17
9.553233428355e-16
1.0459868171959e-14
8.7238776047849e-14
5.7484647639324e-13
3.0647969471022e-12
1.3333563763552e-11
4.8585451458474e-11
1.5378966687763e-10
5.2535570244373e-10
2.7459014422839e-09
1.9165192456898e-08
1.3884227537453e-07
9.3411278830058e-07
5.635257876538e-06
2.8152899389166e-05
9.5713543798605e-05
0.00027233950733999
0.00091335879826681
0.0040356562128229
0.021860890377155
0.14349350000888
0.63588919551464
0.92773504062751
0.90126582220419
0.6988132841177
0.21691657651144
0.016321404791573
0.00067120032315413
0.00013379412940639
2.6785809513042e-05
5.0567202753613e-06
9.5442559853013e-07
1.8016303086704e-07
3.4054094874689e-08
6.481292402152e-09
1.2661128600941e-09
2.8954461577001e-10
9.6644074654103e-11
8.362557818883e-11
6.7564314976168e-11
4.0856993027755e-11
2.0682577248262e-11
9.2306400091873e-12
3.6496970047963e-12
1.3076015844656e-12
4.3744883535302e-13
1.4019965580981e-13
4.3710258031094e-14
1.3345293498511e-14
3.9995823942625e-15
1.1781178493968e-15
3.4151961135774e-16
9.7568080418537e-17
2.7506953587672e-17
7.6615829113646e-18
2.1103599377065e-18
5.7532880607196e-19
1.5534975552559e-19
4.157350301523e-20
1.1032667278924e-20
2.904842532427e-21
7.5917327895462e-22
1.970218568564e-22
5.0793185311828e-23
1.3012537367209e-23
3.3137470171349e-24
8.3907681078113e-25
2.1131164520907e-25
5.2940745974989e-26
1.3197732903398e-26
3.2744773179924e-27
8.0872787788089e-28
1.9886544001299e-28
4.8695207504285e-29
1.1875501669899e-29
2.8848358435466e-30
6.9815892078779e-31
1.68348245652e-31
4.0451795442644e-32
9.6870753855256e-33
2.3121776900307e-33
5.501343856672e-34
1.3049036928679e-34
3.0859652759516e-35
7.2768809912534e-36
1.7111111038088e-36
4.012570811212e-37
9.3851350450484e-38
2.1877975396531e-38
5.1363236885824e-39
1.0725684536698e-39
4.3439387513602e-40
0
0
0
1.3084352178913e-50
1.5487402779066e-50
4.78898497142e-20
2.4066664812983e-18
5.7893455969402e-17
8.8976657473794e-16
9.820520552987e-15
8.2450008335056e-14
5.4610030877464e-13
2.9161263251717e-12
1.2699398477587e-11
4.588680840693e-11
1.4349387911404e-10
4.9720340124376e-10
2.7516595020034e-09
2.1821802932264e-08
1.8511296624379e-07
1.5278692999076e-06
1.2010069999061e-05
7.7459398374095e-05
0.0004117161090546
0.0016374890483284
0.0053566346676269
0.019865588686943
0.099093839994995
0.49785532489469
0.91322934035977
0.98648202255424
0.99298790404811
0.98012216048557
0.87393255181315
0.38997531248165
0.042336831148019
0.0017608173326466
0.00030904918474406
6.594682870105e-05
1.2656680362376e-05
2.4270866213252e-06
4.6523990244086e-07
8.9209515683801e-08
1.7169668667474e-08
3.3669244170357e-09
7.2100323931636e-10
2.0788958580948e-10
1.4125171445633e-10
1.0324485170338e-10
6.1187789252561e-11
2.9680286934707e-11
1.2702623574283e-11
4.8880835568406e-12
1.7309198384458e-12
5.7894381381012e-13
1.8657547345294e-13
5.8570395843769e-14
1.7996889177697e-14
5.4249286488348e-15
1.6068835017832e-15
4.6843826728071e-16
1.3459801839339e-16
3.8168524073799e-17
1.0693763466018e-17
2.962932367006e-18
8.1251459602936e-19
2.2068237952232e-19
5.9402452493855e-20
1.5855670710825e-20
4.1988106118307e-21
1.1036352324834e-21
2.8804470704143e-22
7.4677638007537e-23
1.9238211485143e-23
4.9262559307258e-24
1.2542126025774e-24
3.1757135090702e-25
7.9989475444253e-26
2.004672522594e-26
4.9999288603782e-27
1.2413049931444e-27
3.0680773874103e-28
7.5509390493869e-29
1.8507660515568e-29
4.5183804761516e-30
1.0988937669132e-30
2.6627330138819e-31
6.4291362571555e-32
1.5469697228237e-32
3.7099108900845e-33
8.8683609380361e-34
2.1133178469042e-34
5.0207546624464e-35
1.1893102711375e-35
2.8091723200485e-36
6.617310591742e-37
1.5534265664077e-37
3.6715675226014e-38
7.7297246675167e-39
3.1442673862192e-39
0
0
0
2.0165269659977e-50
2.2768614374098e-50
3.299514729085e-20
1.7166557892948e-18
4.2658341938662e-17
6.7492189137619e-16
7.629903937382e-15
6.5431363350028e-14
4.4112296684826e-13
2.3836010225377e-12
1.047612762763e-11
3.7774912462484e-11
1.1782047641547e-10
4.0118005509224e-10
2.2895599619379e-09
1.9267738182727e-08
1.720156775788e-07
1.5151534873746e-06
1.2927126392706e-05
0.00011073454938579
0.00089750842070891
0.0056235959336319
0.026185788032208
0.11543276802459
0.48407787703772