/*--------------------------------*- C++ -*----------------------------------*\
  =========                 |
  \\      /  F ield         | OpenFOAM: The Open Source CFD Toolbox
   \\    /   O peration     | Website:  https://openfoam.org
    \\  /    A nd           | Version:  7
     \\/     M anipulation  |
\*---------------------------------------------------------------------------*/
FoamFile
{
    version     2.0;
    format      ascii;
    class       volScalarField;
    location    "2.9";
    object      alpha.water;
}
// * * * * * * * * * * * * * * * * * * * * * * * * * * * * * * * * * * * * * //

dimensions      [0 0 0 0 0 0 0];

internalField   nonuniform List<scalar> 
6000
(
0
0
0
0
0
0
0
0
0
0
0
0
0
0
0
0
0
0
0
0
0
0
0
0
0
0
0
0
0
0
0
0
0
0
0
0
0
0
0
0
0
0
0
0
0
0
0
0
0
0
0
0
0
0
0
0
0
0
0
0
0
0
0
0
0
0
0
0
0
0
0
0
0
0
0
0
0
0
0
0
0
0
0
0
0
0
0
0
0
0
0
0
0
0
0
0
0
0
0
0
0
0
0
0
0
0
0
0
0
0
0
0
0
0
0
0
0
0
0
0
0
0
0
0
0
0
0
0
0
0
0
0
0
0
0
0
0
0
0
0
0
0
0
0
0
0
0
0
0
0
0
0
0
0
0
0
0
0
0
0
0
0
0
0
0
0
0
0
0
0
0
0
0
0
0
0
0
0
0
0
0
0
0
0
0
0
0
0
0
0
0
0
0
0
0
0
0
0
0
0
0
0
0
0
0
0
0
0
0
0
0
0
0
0
0
0
0
0
0
0
0
0
0
0
0
0
0
0
0
0
0
0
0
0
0
0
0
0
0
0
0
0
0
0
0
0
0
0
0
0
0
0
0
0
0
0
0
0
0
0
0
0
0
0
0
0
0
0
0
0
0
0
0
0
0
0
0
0
0
0
0
0
0
0
0
0
0
0
0
0
0
0
0
0
0
0
0
0
0
0
0
0
0
0
0
0
0
0
0
0
0
0
0
0
0
0
0
0
0
0
0
0
0
0
0
0
0
0
0
0
0
0
0
0
0
0
0
0
0
0
0
0
0
0
0
0
0
0
0
0
0
0
0
0
0
0
0
0
0
0
0
0
0
0
0
0
0
0
0
0
0
0
0
0
0
0
0
0
0
0
0
0
0
0
0
0
0
0
0
0
0
0
0
0
0
0
0
0
0
0
0
0
0
0
0
0
0
0
0
1.9464847859135e-73
1.8185774303172e-71
8.4182122298613e-70
2.59002800814e-68
5.9494464417671e-67
1.0887655634495e-65
1.653164736786e-64
2.142022969024e-63
2.4178170063169e-62
2.4150821764698e-61
2.1613903602091e-60
1.7506316012256e-59
1.2938838619204e-58
8.7874803586622e-58
5.5164654478658e-57
3.2174015037406e-56
1.7511238873824e-55
8.9286505993118e-55
4.2796505015057e-54
1.9342739127267e-53
8.2662654971763e-53
3.3485681764173e-52
1.2886772561e-51
4.7212022540227e-51
1.6496673774842e-50
5.507065390069e-50
1.7591770489513e-49
5.3851416960369e-49
1.5818636514904e-48
4.4644653119587e-48
1.2120061120232e-47
3.168455198703e-47
7.9843525291116e-47
1.9413100534569e-46
4.5582889942516e-46
1.0344882895978e-45
2.2709640466822e-45
4.8259221806626e-45
9.9344169703761e-45
1.9823782647594e-44
3.836958736204e-44
7.2078345953569e-44
1.3148823186426e-43
2.3306023715809e-43
4.0158046927522e-43
6.729968408702e-43
1.0974693805064e-42
1.7422260316139e-42
2.6936061487364e-42
4.0574958352067e-42
5.9572469125065e-42
8.5282134001397e-42
1.1908321240767e-41
1.62245022039e-41
2.1575601480146e-41
2.8013126114752e-41
3.5522067618561e-41
4.4004683634386e-41
5.3270210408136e-41
6.3033425654818e-41
7.2923960052712e-41
8.2506800165883e-41
9.1313040080948e-41
9.8877810061329e-41
1.047812847488e-40
1.0868753956057e-40
1.1037633383511e-40
1.0976348432354e-40
1.0690748257222e-40
1.0200143847466e-40
9.5351844867347e-41
8.7347503805804e-41
7.8422712404746e-41
6.9019539195012e-41
5.9553505694954e-41
5.0386219535076e-41
4.1806823927396e-41
3.4023029566503e-41
2.7161050807189e-41
2.1272737503925e-41
1.6347704368809e-41
1.2328157521786e-41
9.12425245627e-42
6.6282947315189e-42
4.726698569337e-42
3.3090991950679e-42
2.2745745845046e-42
1.5352185702756e-42
1.0175588771819e-42
6.6237813163448e-43
1.0914460888106e-42
0
0
0
0
0
0
0
-1.8024157628263e-63
-1.5909987560931e-61
-6.98548737349e-60
-2.0338914550527e-58
-4.4173638737524e-57
-7.6326029956525e-56
-1.0927441726303e-54
-1.3330911627608e-53
-1.4143801613129e-52
-1.3254993220637e-51
-1.1106659606082e-50
-8.4026130390313e-50
-5.7853185474198e-49
-3.6490031800369e-48
-2.1199549769361e-47
-1.1396193077721e-46
-5.6899759329957e-46
-2.6467481713343e-45
-1.1497802785112e-44
-4.6728001140847e-44
-1.7784596411925e-43
-6.339878641287e-43
-2.1147205825559e-42
-6.5825394784111e-42
-1.9017306082559e-41
-5.0466735377984e-41
-1.2047654115035e-40
-2.4660829855105e-40
-3.7255245914258e-40
-7.7726394424345e-41
2.3817160394383e-39
1.2875607175096e-38
4.8886158649021e-38
1.5808606207829e-37
4.6157867659818e-37
1.2488535058369e-36
3.1753009348708e-36
7.6523846079817e-36
1.7580830791018e-35
3.86624723735e-35
8.1635730635764e-35
1.6590228019267e-34
3.2512177532789e-34
6.1540097390564e-34
1.1266258312072e-33
1.9971993717294e-33
3.4318783135894e-33
5.7215058085946e-33
9.2622462237631e-33
1.4570577625826e-32
2.2289051459678e-32
3.3177061828921e-32
4.8081007395151e-32
6.7879655791143e-32
9.3403429483344e-32
1.253306081767e-31
1.6406858075043e-31
2.0963339552553e-31
2.6154481638282e-31
3.1875574197322e-31
3.7963331255762e-31
4.4200399925512e-31
5.0326686718098e-31
5.6056919852945e-31
6.1102848765975e-31
6.519764223857e-31
6.8119556572142e-31
6.9711914392797e-31
6.9896882782561e-31
6.8681391012655e-31
6.6154629203461e-31
6.2477721840702e-31
5.7867175563095e-31
5.2574400310095e-31
4.6863906853896e-31
4.0992681976243e-31
3.5192798052118e-31
2.9658641077035e-31
2.4539377339183e-31
1.9936554743485e-31
1.5906151861233e-31
1.2464005716803e-31
9.5933834849735e-32
7.2534913749254e-32
5.3878882918839e-32
3.932033266964e-32
2.8194862941814e-32
1.9865547940905e-32
1.3754005557784e-32
9.357791102406e-33
6.256735692202e-33
4.1111666351025e-33
6.9570895240635e-33
0
0
0
0
0
0
-7.9956593844393e-62
-7.2962329168619e-60
-3.3121421960583e-58
-9.9728197908456e-57
-2.2406355655332e-55
-4.0067231852942e-54
-5.9400726087078e-53
-7.5093495027218e-52
-8.2634976101448e-51
-8.0408604353827e-50
-7.0048403573443e-49
-5.5182230621654e-48
-3.9636134979868e-47
-2.6138493990311e-46
-1.5919233206302e-45
-8.9993881404475e-45
-4.7430822099504e-44
-2.3395665099117e-43
-1.0837027036082e-42
-4.7281564564001e-42
-1.9482560621981e-41
-7.6000560122639e-41
-2.8128237852426e-40
-9.8962103712562e-40
-3.3155790913148e-39
-1.059506384856e-38
-3.233881649508e-38
-9.4402180720705e-38
-2.6386432975064e-37
-7.0691737964546e-37
-1.8169426346785e-36
-4.4837409174182e-36
-1.0630513359669e-35
-2.4227712778206e-35
-5.3098438728609e-35
-1.1193263458272e-34
-2.2695828562161e-34
-4.4253965171971e-34
-8.2935491091144e-34
-1.4924187749078e-33
-2.5746666138431e-33
-4.247755691342e-33
-6.6760584657293e-33
-9.9329416010944e-33
-1.384160610271e-32
-1.7708352551323e-32
-1.991753659541e-32
-1.7368706483875e-32
-4.7610733656257e-33
2.6229771603636e-32
8.7785132912983e-32
1.9662994491854e-31
3.7436443012465e-31
6.4720388401056e-31
1.0449032008734e-30
1.598711765523e-30
2.3383332235852e-30
3.2880434394578e-30
4.4623227094403e-30
5.8615456428428e-30
7.4683983975779e-30
9.2457168298473e-30
1.1136335166027e-29
1.3065302774242e-29
1.4944495301085e-29
1.6679270369089e-29
1.8176467067518e-29
1.9352792635866e-29
2.014253304805e-29
2.0503591771298e-29
2.0421092866656e-29
1.9908138039112e-29
1.9003716468403e-29
1.7768157316258e-29
1.6276821481715e-29
1.4612905993076e-29
1.286026403282e-29
1.10970372766e-29
9.3906892586467e-30
7.7947663685286e-30
6.3474465480299e-30
5.0717069775154e-30
3.9767791782696e-30
3.0604746608673e-30
2.3119529214157e-30
1.7145513354421e-30
1.2483823639475e-30
8.9250557210323e-31
6.2658145774139e-31
4.3199766311063e-31
2.9251868054191e-31
1.9454614933249e-31
1.2709093912759e-31
2.1138540898429e-31
0
0
0
0
0
2.6544142185881e-63
-3.3669381473182e-60
-3.1505412611284e-58
-1.4326499573543e-56
-4.2975392897087e-55
-9.6002803052286e-54
-1.7054996626872e-52
-2.5110482518176e-51
-3.152277015966e-50
-3.4447851987124e-49
-3.3291329317213e-48
-2.8809521492295e-47
-2.254981514163e-46
-1.6097256951116e-45
-1.055312415752e-44
-6.3914121152292e-44
-3.5942405811082e-43
-1.8850849311659e-42
-9.2565781253466e-42
-4.2702361739013e-41
-1.8563364184776e-40
-7.6251216363514e-40
-2.9667753768232e-39
-1.0957960516666e-38
-3.8499189147762e-38
-1.2889648598765e-37
-4.1192623981801e-37
-1.2584789652763e-36
-3.6806471319285e-36
-1.0318281824557e-35
-2.775894232914e-35
-7.1742390351082e-35
-1.7830023683253e-34
-4.2650084010186e-34
-9.8272771332009e-34
-2.1827857830553e-33
-4.6766963745733e-33
-9.6709467759374e-33
-1.9311554443979e-32
-3.7253202427841e-32
-6.9446071468961e-32
-1.2513073293917e-31
-2.179490701921e-31
-3.6694508591946e-31
-5.9704300144077e-31
-9.3836942658908e-31
-1.4235767573502e-30
-2.0822021037476e-30
-2.931160371951e-30
-3.9608273204777e-30
-5.1168960269292e-30
-6.2792949724465e-30
-7.2408332274007e-30
-7.6896497579205e-30
-7.2006307614914e-30
-5.2413004064247e-30
-1.1969062411376e-30
5.5827015342183e-30
1.5715185049445e-29
2.9701844980832e-29
4.7837092194677e-29
7.0124045663525e-29
9.6210659814287e-29
1.2535988449299e-28
1.5646371877401e-28
1.8810501885923e-28
2.1866352389604e-28
2.4645513849497e-28
2.6988753097987e-28
2.8761181232879e-28
2.9865016408166e-28
3.0248279719864e-28
2.9908386193548e-28
2.8890367306363e-28
2.7280240073006e-28
2.5194682158644e-28
2.2768581074257e-28
2.0142151012746e-28
1.7449164309718e-28
1.4807485742217e-28
1.2312616971147e-28
1.0034453292408e-28
8.0170109151263e-29
6.2805590782851e-29
4.8254137777344e-29
3.6366143985001e-29
2.6887838102235e-29
1.9506265618053e-29
1.3887065177931e-29
9.7032828606696e-30
6.6550043869947e-30
4.4806927833584e-30
2.9617705498366e-30
1.9222335828705e-30
3.1392574482321e-30
0
0
0
0
0
1.2154626678193e-61
-7.0061780259151e-59
-6.7814255484227e-57
-3.1028515879109e-55
-9.306548387596e-54
-2.0737881023142e-52
-3.6707643010547e-51
-5.3818153373507e-50
-6.725534047467e-49
-7.3150497378854e-48
-7.0356155247778e-47
-6.0591442183268e-46
-4.7198530061898e-45
-3.3532529227232e-44
-2.1880281965349e-43
-1.3190537778298e-42
-7.3843068751079e-42
-3.8558446578127e-41
-1.885297146013e-40
-8.6612816521869e-40
-3.7501928392918e-39
-1.5345526600778e-38
-5.948881612793e-38
-2.1896773049553e-37
-7.668191099017e-37
-2.5596022816731e-36
-8.1573440925643e-36
-2.4859409490767e-35
-7.2545942230439e-35
-2.0299314552028e-34
-5.452767009832e-34
-1.4076702147804e-33
-3.4960484089958e-33
-8.3609655080085e-33
-1.9271519746037e-32
-4.2845386716893e-32
-9.1947552594826e-32
-1.9059703294009e-31
-3.818535296322e-31
-7.3980999507911e-31
-1.3867464440838e-30
-2.5159962258403e-30
-4.4198921129967e-30
-7.5200780510934e-30
-1.2394414917199e-29
-1.979088165244e-29
-3.061491032513e-29
-4.5873632792032e-29
-6.6560133902676e-29
-9.3464743017566e-29
-1.2691006033732e-28
-1.6642222607534e-28
-2.103716796543e-28
-2.5563906938832e-28
-2.9738088755296e-28
-3.2897852777831e-28
-3.422478454586e-28
-3.2796022170718e-28
-2.7668086115739e-28
-1.7987093958598e-28
-3.1137507538485e-29
1.7253775351805e-28
4.2978893651257e-28
7.3426837193589e-28
1.0746106722152e-27
1.4350306137824e-27
1.796528538897e-27
2.1385755245213e-27
2.4410665168553e-27
2.6862802871705e-27
2.8605806954542e-27
2.9556351609123e-27
2.9690047151324e-27
2.9040595526442e-27
2.7692751845527e-27
2.5770487611609e-27
2.3422293501167e-27
2.0805736669842e-27
1.8073213913709e-27
1.5360396006489e-27
1.2778257266823e-27
1.0408954070219e-27
8.3052653323241e-28
6.4929103283672e-28
4.9748456788475e-28
3.7366060360804e-28
2.7518555727487e-28
1.9875086619954e-28
1.4080054471903e-28
9.7854707030735e-29
6.6727592490208e-29
4.465134636803e-29
2.932400972452e-29
1.8902617713519e-29
3.0309582505488e-29
0
0
0
0
2.5952048389791e-73
2.774575584423e-60
-9.58784080573e-58
-9.6713150805055e-56
-4.4618882498206e-54
-1.3398326012404e-52
-2.9810702583668e-51
-5.2621008845588e-50
-7.6882555341043e-49
-9.5707945113918e-48
-1.0367049316585e-46
-9.928697279187e-46
-8.5136482667076e-45
-6.6027798779457e-44
-4.6703642663323e-43
-3.0340640299267e-42
-1.8210837256752e-41
-1.0150474799752e-40
-5.2774411933401e-40
-2.5694058993344e-39
-1.1754635585664e-38
-5.0685389783178e-38
-2.065589980061e-37
-7.9756219442371e-37
-2.9242393965427e-36
-1.0201616156586e-35
-3.3926156849098e-35
-1.077316826796e-34
-3.2716597342597e-34
-9.5154101285115e-34
-2.6539452305806e-33
-7.107030291042e-33
-1.8293771316217e-32
-4.5309383513198e-32
-1.0808380937052e-31
-2.4854655636296e-31
-5.5142680412556e-31
-1.1812245921087e-30
-2.4448233222936e-30
-4.8923131534378e-30
-9.4708797889231e-30
-1.7746379204362e-29
-3.2202016855182e-29
-5.6610476842594e-29
-9.6452296044195e-29
-1.593182074883e-28
-2.5518874996486e-28
-3.9643762567614e-28
-5.9736870829502e-28
-8.7308779023198e-28
-1.2375484986719e-27
-1.7007130555519e-27
-2.2649376521967e-27
-2.9209163057222e-27
-3.643761371745e-27
-4.3900081150551e-27
-5.0964378670655e-27
-5.681556365067e-27
-6.0503017817482e-27
-6.1020939494698e-27
-5.7417285856963e-27
-4.8919745831904e-27
-3.5061877279109e-27
-1.5789511377391e-27
8.4720334641595e-28
3.6805098044893e-27
6.78486980415e-27
9.990717801375e-27
1.3110631252242e-26
1.5957648582474e-26
1.8363786368059e-26
2.0196216260917e-26
2.1368973064815e-26
2.1848826274504e-26
2.1654898654832e-26
2.0852568689053e-26
1.9542975229231e-26
1.7849929413494e-26
1.5906179204715e-26
1.3840787375338e-26
1.1768954566117e-26
9.7850583720866e-27
7.9591049994796e-27
6.336299863114e-27
4.9391003886489e-27
3.770941197591e-27
2.8208064743992e-27
2.067929875656e-27
1.4860807145704e-27
1.0470988208306e-27
7.235310903769e-28
4.9037543621287e-28
3.2604163675526e-28
2.1269392621496e-28
1.3615520118677e-28
2.1438266542837e-28
0
0
0
0
1.2192312254907e-71
4.2097005357705e-59
-9.6830605505689e-57
-1.0270105635144e-54
-4.7861864729387e-53
-1.4401336127619e-51
-3.2012490777694e-50
-5.6375712254221e-49
-8.2113404084686e-48
-1.0185685957876e-46
-1.09908155398e-45
-1.0483824501593e-44
-8.9524908491452e-44
-6.9138846116479e-43
-4.86958920159e-42
-3.1499290472e-41
-1.8825010199931e-40
-1.0447700520364e-39
-5.4086686314107e-39
-2.6220370963161e-38
-1.194437245306e-37
-5.1285653257717e-37
-2.0812714461248e-36
-8.0026672885917e-36
-2.9220270044133e-35
-1.0152155830425e-34
-3.36248436321e-34
-1.0634698539569e-33
-3.2168252052429e-33
-9.319395132065e-33
-2.5892763106334e-32
-6.9076215831071e-32
-1.7714461468119e-31
-4.3715025076793e-31
-1.0391021672081e-30
-2.3812322757333e-30
-5.2653175780966e-30
-1.1242525746709e-29
-2.3197028196606e-29
-4.6282757051507e-29
-8.9349340552525e-29
-1.6699128277e-28
-3.0230838017463e-28
-5.3035014760976e-28
-9.0201078538997e-28
-1.487836290315e-27
-2.3808221702574e-27
-3.6968805175672e-27
-5.5713478405943e-27
-8.1498383032788e-27
-1.1572081199305e-26
-1.5948241901389e-26
-2.1328643106827e-26
-2.7669658961925e-26
-3.4800550142119e-26
-4.2397683369707e-26
-4.9973390958561e-26
-5.6886180619201e-26
-6.2376817625132e-26
-6.5631036188466e-26
-6.5864784250879e-26
-6.2422843449314e-26
-5.4877501352132e-26
-4.3111770012845e-26
-2.7372215349346e-26
-8.280004821061e-27
1.320515440223e-26
3.5865995182153e-26
5.8343884426564e-26
7.9274543937412e-26
9.7424373228229e-26
1.1180858545138e-25
1.2177577532766e-25
1.2704943340359e-25
1.277240483004e-25
1.2422038133089e-25
1.1721000290425e-25
1.0752241257488e-25
9.6048736751492e-26
8.3654357160103e-26
7.1109520010491e-26
5.9042864845782e-26
4.791874119638e-26
3.8035822971255e-26
2.9542285239283e-26
2.246178549227e-26
1.6724558040318e-26
1.2198794911127e-26
8.7187974223656e-27
6.1078089477177e-27
4.1947273770383e-27
2.8248916805658e-27
1.8657840584367e-27
1.2088064682508e-27
7.683440784928e-28
1.1880644693322e-27
0
0
0
0
2.8448394968772e-70
4.7756795814178e-58
-7.6710240148033e-56
-8.6551758757187e-54
-4.0824279150319e-52
-1.23185661967e-50
-2.7369844241785e-49
-4.8102565347504e-48
-6.9863070326579e-47
-8.6369963315852e-46
-9.2854395553686e-45
-8.8226834050454e-44
-7.5036243348667e-43
-5.7710234409101e-42
-4.0475952085438e-41
-2.6071100792724e-40
-1.5514369457755e-39
-8.573363318843e-39
-4.4192373933821e-38
-2.1331416730127e-37
-9.6753691978211e-37
-4.136417317805e-36
-1.6714118081571e-35
-6.3990972457075e-35
-2.3264891673247e-34
-8.0484496919849e-34
-2.6543382819794e-33
-8.3592772152551e-33
-2.5178203718749e-32
-7.2634962644144e-32
-2.0095786715267e-31
-5.3386667724183e-31
-1.3633905937018e-30
-3.3506046187644e-30
-7.9316737718654e-30
-1.810251431697e-29
-3.9866810535393e-29
-8.4785813849429e-29
-1.7425715316157e-28
-3.4634405150295e-28
-6.6611152144129e-28
-1.2403945919904e-27
-2.2375762481058e-27
-3.9121205821161e-27
-6.6321497866123e-27
-1.0906238188899e-26
-1.7402988041073e-26
-2.695429731893e-26
-4.0531287356039e-26
-5.9181627504181e-26
-8.3919517577102e-26
-1.1556562758363e-25
-1.5454393708897e-25
-2.0065473647266e-25
-2.5285595592826e-25
-3.0909539149787e-25
-3.6624079162201e-25
-4.2015011260951e-25
-4.6590900255886e-25
-4.9823753709264e-25
-5.1203692573651e-25
-5.03015202344e-25
-4.6830589762174e-25
-4.0698200465547e-25
-3.2037357041797e-25
-2.1212169312305e-25
-8.7941074130862e-26
4.4889617582127e-26
1.7824476821084e-25
3.0397671201632e-25
4.1473208252432e-25
5.0464723253522e-25
5.6983383015146e-25
6.0860324065094e-25
6.2142178649029e-25
6.106298380895e-25
5.7998869401869e-25
5.3413591885906e-25
4.7803117071037e-25
4.1646265289673e-25
3.5366345680049e-25
2.9306245531211e-25
2.3717098532937e-25
1.8758801250553e-25
1.4509478584151e-25
1.0980544258923e-25
8.1341549539333e-26
5.9004305045876e-26
4.1925991229444e-26
2.919040284623e-26
1.9919042138117e-26
1.3325112203996e-26
8.7405648910074e-27
5.6228638772419e-27
3.5481385575989e-27
5.3875216561039e-27
0
0
0
0
4.4050654436941e-69
4.3206837894055e-57
-4.9399770774309e-55
-6.0251117762006e-53
-2.8828328205891e-51
-8.7308491615271e-50
-1.9398052525185e-48
-3.4032989374557e-47
-4.9297280625556e-46
-6.0749240860302e-45
-6.5077337234459e-44
-6.1599109060388e-43
-5.2181936399798e-42
-3.9969339499682e-41
-2.7916431071435e-40
-1.7905410068911e-39
-1.0609657784059e-38
-5.8377566858747e-38
-2.9961137737362e-37
-1.4399191032103e-36
-6.5025900280986e-36
-2.7678202423709e-35
-1.1134913527669e-34
-4.2443156832034e-34
-1.5362847736464e-33
-5.2912839325438e-33
-1.7373202476919e-32
-5.4470825867299e-32
-1.6333854508326e-31
-4.6911116404201e-31
-1.2921085826717e-30
-3.4173477940371e-30
-8.6883682824908e-30
-2.1257043670776e-29
-5.0096540235593e-29
-1.1382771515377e-28
-2.4956965119845e-28
-5.284231949993e-28
-1.0812787912016e-27
-2.1397175317877e-27
-4.0974568807588e-27
-7.5974463871792e-27
-1.3647491591608e-26
-2.3762246615253e-26
-4.0120855423537e-26
-6.5717386605987e-26
-1.0446661766594e-25
-1.6121339193734e-25
-2.4158407590872e-25
-3.5161914918634e-25
-4.9714219924226e-25
-6.8285623082978e-25
-9.112129131226e-25
-1.1811681509955e-24
-1.4870059220859e-24
-1.8174644992428e-24
-2.1554162938529e-24
-2.4783194118542e-24
-2.7595693228391e-24
-2.9707395905431e-24
-3.0845325049752e-24
-3.0780963823879e-24
-2.9362438950939e-24
-2.6540584655963e-24
-2.238423381792e-24
-1.7081505328215e-24
-1.0926002001482e-24
-4.2892983586363e-25
2.4166110794201e-25
8.781581181707e-25
1.4438298548758e-24
1.9096371182734e-24
2.2565280230571e-24
2.4763953576008e-24
2.5716942725306e-24
2.5539188103305e-24
2.4412798833739e-24
2.2559961138565e-24
2.0216009406009e-24
1.7605982643967e-24
1.4926881731426e-24
1.2336606747255e-24
9.9494266871602e-25
7.836982746168e-25
6.0333289049539e-25
4.5423645017148e-25
3.346146227187e-25
2.412882814766e-25
1.7038115615697e-25
1.178545138071e-25
7.988010822599e-26
5.3065600789256e-26
3.4559841829733e-26
2.2070211124445e-26
1.3822933265817e-26
2.0607122086127e-26
0
0
0
0
5.093141593727e-68
3.2471722021612e-56
-2.638539783141e-54
-3.5601532348724e-52
-1.7326935083038e-50
-5.2719034278204e-49
-1.1718308447814e-47
-2.0529411278682e-46
-2.9663669653608e-45
-3.6442111405445e-44
-3.8903066568745e-43
-3.6686466178426e-42
-3.0956319508547e-41
-2.361545628061e-40
-1.6425819583824e-39
-1.0491004884107e-38
-6.1897769389397e-38
-3.3911008149285e-37
-1.7328382968391e-36
-8.291428746852e-36
-3.7278421476441e-35
-1.5797138567644e-34
-6.3268443899662e-34
-2.4008144510306e-33
-8.6509620459224e-33
-2.9661069843118e-32
-9.6946038858149e-32
-3.0257289300885e-31
-9.0315461400105e-31
-2.5819520509598e-30
-7.0788421999307e-30
-1.8635257173881e-29
-4.7158511847637e-29
-1.1484014870642e-28
-2.6937784229731e-28
-6.0920125144648e-28
-1.329413096054e-27
-2.8015859282771e-27
-5.7057687838965e-27
-1.1238031756325e-26
-2.1419595047275e-26
-3.9530887343196e-26
-7.0681638130686e-26
-1.2250203848756e-25
-2.0589715120771e-25
-3.3574765687039e-25
-5.3137109360099e-25
-8.1649297845954e-25
-1.2184381236021e-24
-1.766265275915e-24
-2.4876575585479e-24
-3.4045612465632e-24
-4.5278302475457e-24
-5.8514501945707e-24
-7.347223130133e-24
-8.9610101146077e-24
-1.061167068494e-23
-1.2193641811571e-23
-1.3583646828448e-23
-1.4651360508386e-23
-1.5273087660843e-23
-1.5346794484256e-23
-1.4806333867668e-23
-1.363256908625e-23
-1.1859397347601e-23
-9.5733832386938e-24
-6.9067129971204e-24
-4.0242807745078e-24
-1.1066953299923e-24
1.6683487697903e-24
4.1436848771902e-24
6.1968925622902e-24
7.7494118007493e-24
8.7697622609817e-24
9.2710467030894e-24
9.303752787109e-24
8.9454301822196e-24
8.2890440816853e-24
7.4317029204537e-24
6.4651004551991e-24
5.4685098250261e-24
4.5046358586e-24
3.6181692223279e-24
2.8365550556947e-24
2.1723133368502e-24
1.6262178064e-24
1.190720868286e-24
8.531590646258e-25
5.9844416825516e-25
4.111043719276e-25
2.7666690137604e-25
1.8245870402314e-25
1.1794679366585e-25
7.4751867394677e-26
4.6458197281494e-26
6.7983342248919e-26
0
0
0
0
4.6891933779405e-67
2.0849698817049e-55
-1.1771018065604e-53
-1.8207143165195e-51
-9.0439946100166e-50
-2.7675507100026e-48
-6.1577124298854e-47
-1.0775406058235e-45
-1.5534343176229e-44
-1.9027884501162e-43
-2.024431680407e-42
-1.9020919700872e-41
-1.5987945851651e-40
-1.2147668034622e-39
-8.4145042516922e-39
-5.3516327662528e-38
-3.1440001594943e-37
-1.7149945668225e-36
-8.7251849041778e-36
-4.1564578507915e-35
-1.8604317089366e-34
-7.8484339234514e-34
-3.1291554536613e-33
-1.1820112560211e-32
-4.2397321408514e-32
-1.4469715042121e-31
-4.7075033847338e-31
-1.462400387541e-30
-4.3447263217481e-30
-1.236234757767e-29
-3.3733081135875e-29
-8.8381005421474e-29
-2.2258838708914e-28
-5.3944177976773e-28
-1.2592480906891e-27
-2.8339995555229e-27
-6.1543252134808e-27
-1.2906219813913e-26
-2.615642793963e-26
-5.126487131179e-26
-9.7230911313988e-26
-1.7856384300991e-25
-3.1770964285456e-25
-5.4794868826598e-25
-9.1649290712693e-25
-1.4872615956103e-24
-2.3425343484101e-24
-3.5824298489243e-24
-5.3210324091361e-24
-7.6780906028152e-24
-1.0765637669872e-23
-1.4669674973581e-23
-1.9428173297779e-23
-2.5007925865267e-23
-3.128396684739e-23
-3.8026016937069e-23
-4.4896408466319e-23
-5.1462957168316e-23
-5.7228264084197e-23
-6.1674179999333e-23
-6.4317121396085e-23
-6.4767229158898e-23
-6.2782666429099e-23
-5.831016618817e-23
-5.1504467561589e-23
-4.272234463401e-23
-3.2490987266092e-23
-2.1454741940564e-23
-1.0307797955305e-23
2.7741220149582e-25
9.715949383923e-24
1.7561523820626e-23
2.3537218235307e-23
2.7543570003951e-23
2.9645467601018e-23
3.004231237084e-23
2.9027755777414e-23
2.6945867254071e-23
2.4149928606563e-23
2.0968515152516e-23
1.7681548716281e-23
1.450702781625e-23
1.1597498468036e-23
9.0442259717326e-24
6.8865160942164e-24
5.1236435283653e-24
3.7272308793219e-24
2.6525109134565e-24
1.84754133231e-24
1.2600081914862e-24
8.416842940602e-25
5.5088140919125e-25
3.5336312801752e-25
2.2220138676461e-25
1.3700351170704e-25
1.967379560988e-25
0
0
0
0
3.5810587082365e-66
1.1675099079814e-54
-4.3417766421348e-53
-8.1750550418864e-51
-4.1622133999508e-49
-1.2826855882149e-47
-2.858478737574e-46
-4.9980511783493e-45
-7.1905829673632e-44
-8.7830009315899e-43
-9.3138832279872e-42
-8.7195754794541e-41
-7.3012047656365e-40
-5.5253656489526e-39
-3.8116123604887e-38
-2.4139959318197e-37
-1.4121124618876e-36
-7.6693487360288e-36
-3.8846889533524e-35
-1.8423445730368e-34
-8.2093604473861e-34
-3.4475499467066e-33
-1.3682695517897e-32
-5.1448046117574e-32
-1.836854560716e-31
-6.2398205024194e-31
-2.0205306935952e-30
-6.2472786925634e-30
-1.8472427966409e-29
-5.231024627457e-29
-1.4205400165678e-28
-3.7038685111739e-28
-9.282949121927e-28
-2.2387355767863e-27
-5.2003488861027e-27
-1.1645885073431e-26
-2.5164816281921e-26
-5.2510072735152e-26
-1.0588698490586e-25
-2.0648846523573e-25
-3.8965859118248e-25
-7.1198491412586e-25
-1.2603751772238e-24
-2.1627085906636e-24
-3.5989381707987e-24
-5.8105962016351e-24
-9.1056536546796e-24
-1.3854853507023e-23
-2.047532118748e-23
-2.9397831702259e-23
-4.1015888072131e-23
-5.5617835470358e-23
-7.3307358522782e-23
-9.3922239715857e-23
-1.169651858512e-22
-1.4156266099786e-22
-1.6646690998405e-22
-1.9011208462766e-22
-2.1072772346297e-22
-2.2650281622608e-22
-2.3578314678764e-22
-2.3727584953151e-22
-2.3023034685255e-22
-2.145655943681e-22
-1.9092023058377e-22
-1.6061384461595e-22
-1.2552197739556e-22
-8.7881779432584e-23
-5.0056548454017e-23
-1.429341496591e-23
1.7491826775144e-23
4.3874993460786e-23
6.4011785182777e-23
7.7649594250463e-23
8.5070459068384e-23
8.6982083176088e-23
8.4379042514386e-23
7.8397062329422e-23
7.0180155283737e-23
6.0774720426919e-23
5.1057923057587e-23
4.1701221530082e-23
3.3164820297818e-23
2.5715649997992e-23
1.9460256991053e-23
1.438440381395e-23
1.0392706471903e-23
7.3436870002815e-24
5.077703458622e-24
3.4369890546305e-24
2.2783104988283e-24
1.479511451499e-24
9.4150931563799e-25
5.8728364732383e-25
3.5916343918512e-25
5.0604061694723e-25
0
0
0
0
2.3334368066127e-65
5.7915551919001e-54
-1.2628281614267e-52
-3.2567386467893e-50
-1.7088905177645e-48
-5.3120119413205e-47
-1.186516456631e-45
-2.073772808139e-44
-2.9780617003106e-43
-3.6279632886697e-42
-3.835069153187e-41
-3.5777215735628e-40
-2.9844617936979e-39
-2.249641407223e-38
-1.5455448188016e-37
-9.7472736215015e-37
-5.6774353156305e-36
-3.0700607722554e-35
-1.5481909743073e-34
-7.3096534366958e-34
-3.2424512755979e-33
-1.3554874429071e-32
-5.3550251591861e-32
-2.004236383044e-31
-7.1224791611414e-31
-2.4081952180176e-30
-7.7613188491584e-30
-2.3883561510631e-29
-7.0284283392969e-29
-1.9807746856122e-28
-5.3530828891387e-28
-1.3889811507669e-27
-3.4642172038766e-27
-8.313583293597e-27
-1.9216401175143e-26
-4.2820709044877e-26
-9.2067081592996e-26
-1.9114801878858e-25
-3.8350717660041e-25
-7.4407635738543e-25
-1.3969594482145e-24
-2.5394244298641e-24
-4.4721531151865e-24
-7.6340493019185e-24
-1.2637466157545e-23
-2.0296660755306e-23
-3.1639123883767e-23
-4.788703471421e-23
-7.0395599771973e-23
-1.0053764534578e-22
-1.3953040127513e-22
-1.8821102463874e-22
-2.4678099374844e-22
-3.1455369238928e-22
-3.8975088500956e-22
-4.6939855856964e-22
-5.4936760929026e-22
-6.245886496972e-22
-6.8944395428982e-22
-7.3830724308236e-22
-7.6616991197058e-22
-7.6926773261947e-22
-7.4561142649805e-22
-6.9533173042478e-22
-6.2077462820412e-22
-5.2632119728465e-22
-4.1795154826168e-22
-3.0261453880633e-22
-1.8749579383992e-22
-7.9290105916193e-23
1.6421525645617e-23
9.5612967524659e-23
1.560294581005e-22
1.9717543120683e-22
2.2010446307744e-22
2.2706740576289e-22
2.2108707868958e-22
2.0552701790088e-22
1.8371013000303e-22
1.5862473822059e-22
1.3273502145055e-22
1.0789426586971e-22
8.5345442783711e-23
6.5785628538937e-23
4.9468513845718e-23
3.6321522695096e-23
2.6059190231116e-23
1.8280728039362e-23
1.2545746783101e-23
8.4270100652105e-24
5.5424607301429e-24
3.570598771533e-24
2.2538673948499e-24
1.3944053538091e-24
8.4573533870896e-25
1.1690463860964e-24
0
0
0
0
1.3242583668797e-64
2.5767069605351e-53
-2.3851618453909e-52
-1.1597545040997e-49
-6.3174059213379e-48
-1.9846049588988e-46
-4.4468698774241e-45
-7.7725051343241e-44
-1.1144559160406e-42
-1.3543190886322e-41
-1.4272734168434e-40
-1.3269246500969e-39
-1.1027867706751e-38
-8.2801222257172e-38
-5.6654772064467e-37
-3.5580969466997e-36
-2.0635990227147e-35
-1.1110279817129e-34
-5.5780133190685e-34
-2.6218339855241e-33
-1.1577504916367e-32
-4.8178411257102e-32
-1.8946037213273e-31
-7.0581651879978e-31
-2.4965917506501e-30
-8.4017554512402e-30
-2.6950401765951e-29
-8.2541082463101e-29
-2.4174696314479e-28
-6.7804762563643e-28
-1.8236520909099e-27
-4.7090972580866e-27
-1.1687986994983e-26
-2.7912941917043e-26
-6.4203826434726e-26
-1.4236462566877e-25
-3.0457826294969e-25
-6.2921123919288e-25
-1.2560792530556e-24
-2.4247196825357e-24
-4.5290888443977e-24
-8.1908104526988e-24
-1.4350052827381e-23
-2.4367848454751e-23
-4.012615275715e-23
-6.4102876978162e-23
-9.9390231789807e-23
-1.4961872623862e-22
-2.1874951470581e-22
-3.1070780182315e-22
-4.2885175064424e-22
-5.753042738343e-22
-7.5021517345205e-22
-9.510606162873e-22
-1.1721155527393e-21
-1.404241724184e-21
-1.6351114088767e-21
-1.8499328791297e-21
-2.0326633299918e-21
-2.1676022818675e-21
-2.2411721922586e-21
-2.2436335277963e-21
-2.1704651798074e-21
-2.0231755701353e-21
-1.8093915232288e-21
-1.5421863603315e-21
-1.2387332117456e-21
-9.1847916557954e-22
-6.0110886054174e-22
-3.0458913429967e-22
-4.3557132721211e-23
1.7175831206612e-22
3.3599108059658e-22
4.4848112937117e-22
5.126095945743e-22
5.3478890119404e-22
5.2329572226564e-22
4.8712457640881e-22
4.3500297411264e-22
3.7465691679021e-22
3.1236046609462e-22
2.5275527124133e-22
1.9889192443621e-22
1.5242719503637e-22
1.1390833030655e-22
8.3084031372459e-23
5.9196715975634e-23
4.1227766039765e-23
2.8083155322665e-23
1.8719066122484e-23
1.2215066659075e-23
7.8063819023153e-24
4.887605836923e-24
2.9989486484326e-24
1.8037998757287e-24
2.4463002318288e-24
0
0
0
0
6.6494334732184e-64
1.0384832133702e-52
1.1999389130013e-52
-3.7091735605246e-49
-2.1181775084776e-47
-6.7411205563036e-46
-1.5167558985773e-44
-2.6526092983178e-43
-3.798778765875e-42
-4.605974525337e-41
-4.8399960500819e-40
-4.4846911764258e-39
-3.7135862583257e-38
-2.7775210957427e-37
-1.8927904970954e-36
-1.1837842017694e-35
-6.8363436164707e-35
-3.6646389177793e-34
-1.8317398790228e-33
-8.5712292925812e-33
-3.767786783782e-32
-1.560775260399e-31
-6.10954380043e-31
-2.2655466517727e-30
-7.9764522700831e-30
-2.6718075875155e-29
-8.5303411708502e-29
-2.6003473288686e-28
-7.5801337813077e-28
-2.1160479521332e-27
-5.6643677676567e-27
-1.4557455312223e-26
-3.5959964897611e-26
-8.5469099690795e-26
-1.9564971767353e-25
-4.3174204552134e-25
-9.1920498862285e-25
-1.8896719233439e-24
-3.7537610643275e-24
-7.2102754328356e-24
-1.3400499642144e-23
-2.4112051460995e-23
-4.2027516064509e-23
-7.0997829626945e-23
-1.1629934907733e-22
-1.8480918350331e-22
-2.8501086623583e-22
-4.2672964913959e-22
-6.2050286528964e-22
-8.7652420686491e-22
-1.2031653884074e-21
-1.605170897469e-21
-2.0817280912199e-21