/*--------------------------------*- C++ -*----------------------------------*\
  =========                 |
  \\      /  F ield         | OpenFOAM: The Open Source CFD Toolbox
   \\    /   O peration     | Website:  https://openfoam.org
    \\  /    A nd           | Version:  7
     \\/     M anipulation  |
\*---------------------------------------------------------------------------*/
FoamFile
{
    version     2.0;
    format      ascii;
    class       surfaceScalarField;
    location    "0.4";
    object      alphaPhi0.water;
}
// * * * * * * * * * * * * * * * * * * * * * * * * * * * * * * * * * * * * * //

dimensions      [0 3 -1 0 0 0 0];

internalField   nonuniform List<scalar> 
11840
(
0
0
0
0
0
0
0
0
0
0
0
0
0
0
0
0
0
0
0
0
0
0
0
0
0
0
0
0
0
0
0
0
0
0
0
0
0
0
0
0
0
0
0
0
0
0
0
0
0
0
0
0
0
0
0
0
0
0
0
0
0
0
0
0
0
0
0
0
0
0
0
0
0
0
0
0
0
0
0
0
0
0
0
0
0
0
0
0
0
0
0
0
0
0
0
0
0
0
0
0
0
0
0
0
0
0
0
0
0
0
0
0
0
0
0
0
0
0
0
0
0
0
0
0
0
0
0
0
0
0
0
0
0
0
0
0
0
0
0
0
0
0
0
0
0
0
0
0
0
0
0
0
0
0
0
0
0
0
0
0
0
0
0
0
0
0
0
0
0
0
0
0
0
0
0
0
0
0
0
0
0
0
0
0
0
0
0
0
0
0
0
0
0
0
0
0
0
0
0
0
0
0
0
0
0
0
0
0
0
0
0
0
0
0
0
0
0
0
0
0
0
0
0
0
0
0
0
0
0
0
0
0
0
0
0
0
0
0
0
0
0
0
0
0
0
0
0
0
0
0
0
0
0
0
0
0
0
0
0
0
0
0
0
0
0
0
0
0
0
0
0
0
0
0
0
0
0
0
0
0
0
0
0
0
0
0
0
0
0
0
0
0
0
0
0
0
0
0
0
0
0
0
0
0
0
0
0
0
0
0
0
0
0
0
0
0
0
0
0
0
0
0
0
0
0
0
0
0
0
0
0
0
0
0
0
0
0
0
0
0
0
0
0
0
0
0
0
0
0
0
0
0
0
0
0
0
0
0
0
0
0
0
0
0
0
0
0
0
0
0
0
0
0
0
0
0
0
0
0
0
0
0
0
0
0
0
0
0
0
0
0
0
0
0
0
0
0
0
0
0
0
0
0
0
0
0
0
0
0
0
0
0
0
0
0
0
0
0
0
0
0
0
0
0
0
0
0
0
0
0
0
0
0
0
0
0
0
0
0
0
0
0
0
0
0
0
0
0
0
0
0
0
0
0
0
0
0
0
0
0
0
0
0
0
0
0
0
0
0
0
0
0
0
0
0
0
0
0
0
0
0
0
0
0
0
0
0
0
0
0
0
0
0
0
0
0
0
0
0
0
0
0
0
0
0
0
0
0
0
0
0
0
0
0
0
0
0
0
0
0
0
0
0
0
0
0
0
0
0
0
0
0
0
0
0
0
0
0
0
0
0
0
0
0
0
0
0
0
0
0
0
0
0
0
0
0
0
0
0
0
0
0
0
0
0
0
0
0
0
0
0
0
0
0
0
0
0
0
0
0
0
0
0
0
0
0
0
0
0
0
0
0
0
0
0
0
0
0
0
0
0
0
0
0
0
0
0
0
0
0
0
0
0
0
0
0
0
0
0
0
0
0
0
0
0
0
0
0
0
0
0
1.6625915660998e-40
1.4428110893195e-40
5.5493226903614e-40
6.3996926132423e-40
1.8464437657587e-39
2.2068258338882e-39
4.4093691895896e-39
5.6289472060933e-39
5.7720870788618e-39
6.2916885486454e-39
3.6308035246995e-39
4.9412714320077e-39
1.0896349584054e-39
1.6847864903027e-39
1.623954105075e-40
4.1720339152751e-40
3.1036193850372e-41
8.6228268616942e-41
5.8576912505804e-42
2.3504282012597e-41
1.1149133090447e-42
4.486485729508e-42
2.0660378806876e-43
8.5793514729321e-43
3.3154610630986e-44
1.6393836355008e-43
8.5019275725354e-45
2.0884601894231e-44
1.5619341992789e-45
6.5698873274085e-45
2.4493910596025e-46
1.2536624109258e-45
6.1310448210796e-47
1.5614791336167e-46
9.5293063582564e-48
4.9139823726917e-47
2.4600572337572e-48
6.0415233983091e-48
4.5105545796376e-49
1.9059705317317e-48
6.9518948738401e-50
3.6409951422883e-49
1.6341504414039e-50
4.9313774047673e-50
2.4486189619989e-51
1.3228236544577e-50
4.7484272336459e-52
1.6876914978985e-51
1.2083546945671e-52
2.887523105663e-52
2.2230400431113e-53
9.3820152742506e-53
3.2973428613077e-54
1.7886846918112e-53
8.2968701591062e-55
2.1133731921406e-54
1.4770853151571e-55
6.5303679421067e-55
2.5029595290501e-56
1.2842780373731e-55
4.9278975488041e-57
1.6332725200344e-56
1.1312706717853e-57
3.1532385587966e-57
2.3155204828077e-58
6.8475611114066e-58
5.2735935546335e-59
1.4218692538893e-58
9.6540526800668e-60
4.077756826491e-59
1.4960769434114e-60
7.774664161294e-60
3.8782287083161e-61
9.4604384545171e-61
7.1079209822791e-62
2.9938836411638e-61
1.1002196621813e-62
5.7141266996541e-62
2.7599050084351e-63
6.9898005612099e-63
4.2612240277303e-64
2.2093900017781e-63
1.0638071994149e-64
2.7006059311073e-64
1.6029100738927e-65
8.5425121361832e-65
3.1272127938544e-66
1.2071395967266e-65
7.8294514528932e-67
1.9802405556253e-66
1.2009367175459e-67
6.2738394940655e-67
3.1086277463751e-68
7.5442101080467e-68
5.6891300545569e-69
2.4014904265013e-68
8.7685970534784e-70
4.576503912888e-69
2.1933173532807e-70
5.5326982125437e-70
3.3618236844169e-71
1.756450733985e-70
8.4942403609319e-72
2.1134966426765e-71
1.3746772371948e-72
6.7236430088291e-72
2.479990413364e-73
1.0595697105071e-72
5.4959201445259e-74
1.5878329253378e-73
1.0500847853478e-74
3.8303626918437e-74
2.6079078335806e-75
6.3835602164155e-75
4.7519307740479e-76
2.0053468318975e-75
7.2199639306792e-77
3.8173888545593e-76
1.8770500482966e-77
4.4975082336289e-77
3.4764655022827e-78
1.4402439599758e-77
6.6411894926276e-79
2.7054402549772e-78
1.2188009826154e-79
5.1365688704575e-79
1.8548898922307e-80
9.7844100889692e-80
3.9780464658787e-81
1.2517408447971e-80
8.6099405612317e-82
2.4514232874501e-81
1.799924311116e-82
5.1829837863729e-82
3.6642673630407e-83
1.0812553107007e-82
8.7467072612499e-84
2.1552746269608e-83
1.5893713014432e-84
6.6745883461618e-84
2.4133207219493e-85
1.2690755688138e-84
5.2543938065659e-86
1.5234334659708e-85
1.2308114085542e-86
3.1258417466421e-86
1.8248390276261e-87
9.7710604443611e-87
3.8126013971593e-88
1.2204917212231e-87
8.0694423877403e-89
2.3451638365588e-88
1.655729956466e-89
4.8524210089746e-89
3.3637565839185e-90
9.9147519993581e-90
6.5438798980389e-91
2.0250850647767e-90
1.18614922137e-91
4.7831082064369e-91
2.4927163574306e-92
7.4234428417488e-92
5.806756631839e-93
1.4851920432315e-92
4.1764025182372e-93
0
0
0
0
0
0
0
0
0
0
0
0
0
0
0
0
0
0
5.8745779664606e-32
0
1.06810522037e-32
4.8064727460906e-32
1.9420095535425e-33
8.7390426501574e-33
9.0463923561838e-33
0
1.6447986103203e-33
7.4015937458635e-33
2.9905429278771e-34
1.3457443175326e-33
5.4373507779768e-35
2.4468078500794e-34
9.8860923235972e-36
4.4487415456171e-35
2.5713054937921e-35
0
4.6756198360085e-36
2.1039295230201e-35
8.5151515814156e-37
3.8294814934202e-36
8.1151001394555e-38
7.8355906837459e-37
9.587858199165e-38
2.3546416902303e-38
1.517640975061e-37
3.6495782774253e-39
3.1661982509942e-38
1.3529003373149e-37
6.775758250321e-39
2.4874689543927e-38
2.1118890569305e-39
4.5824418868043e-39
3.9495771709204e-40
1.730962598911e-39
7.3871975756346e-41
3.2379961655135e-40
1.3825849536044e-41
6.0564494875506e-41
2.5891042616735e-42
1.1335843326672e-41
2.6972426854052e-42
0
4.9337606829152e-43
2.2079226597421e-42
8.407171117383e-44
4.1008623468096e-43
6.9231589377474e-44
0
1.2609628083012e-44
5.6652651235319e-44
3.1507512058041e-45
0
3.1515147417148e-45
0
1.2117317437957e-46
3.030571624792e-45
1.1433737595747e-46
0
3.8955097415312e-48
1.1045020259917e-46
2.5886428547086e-48
0
1.9099666557218e-49
0
1.9093331294923e-49
0
3.619143970114e-51
1.873248891743e-49
2.0899702156896e-51
0
1.2394596428086e-51
5.4575712185413e-52
1.6430343321863e-52
7.3187405470745e-52
5.1519926882058e-53
1.127880981083e-52
3.9617621000495e-54
0
4.468478105404e-54
0
1.3750433229469e-54
3.0934740743451e-54
3.4629765292761e-55
1.5582650394753e-54
5.8585757496369e-56
2.8775383986568e-55
7.4209453233862e-57
0
7.4180004930533e-57
0
9.5556068934997e-58
6.4624726979919e-57
5.0013257626711e-58
0
6.3382302431578e-59
4.3675155304038e-58
3.385676297074e-59
0
7.3392761963616e-61
3.3122885136004e-59
7.3344791818465e-61
0
3.6750462813534e-61
0
4.6157962946403e-62
3.2134703506461e-61
2.2674991202098e-62
0
4.1227362468152e-63
1.855226910413e-62
5.1435877004142e-64
3.6083802081361e-63
2.4823702206065e-64
0
3.0624422049733e-65
2.1761270369728e-64
1.5227109719494e-65
0
3.7845437791324e-67
1.4848659286651e-65
3.7820061219382e-67
0
2.5909056501034e-68
0
2.5887190359805e-68
0
1.2384870912223e-68
0
2.1193369602375e-69
1.0265535091055e-68
2.9517228849228e-70
1.8241648915821e-69
2.8074200557999e-71
0
2.8057310132228e-71
0
9.2824939492748e-73
2.7129062293259e-71
9.2769095662216e-73
0
3.0045556188395e-74
8.9764545622586e-73
2.4496832664538e-74
0
1.751949127978e-75
0
5.2924924998789e-76
0
3.8047192898329e-76
0
3.3752383757455e-77
0
3.37304504604e-77
0
5.9124690009361e-79
3.313920422453e-77
3.3845840381329e-79
0
2.390767600882e-79
0
7.6357132991083e-81
2.3144105165661e-79
6.0754585707792e-81
0
3.8856740944451e-82
0
1.1644705468347e-82
0
8.312659195286e-83
0
5.0364304953026e-84
0
5.0315660389818e-84
0
2.8214486564813e-85
0
1.2924485015023e-85
0
0
0
0
0
0
0
0
0
0
0
0
0
0
0
0
4.8903409585348e-13
2.596664918672e-13
8.2426790403101e-12
5.1564952373661e-12
6.9968946620224e-11
4.5583958366364e-11
5.1083168060454e-10
3.1315265405153e-10
4.1253319977444e-09
2.5610114266525e-09
2.599868597376e-08
1.8533058398112e-08
8.2063737942005e-08
7.6068464734892e-08
1.3562958714885e-07
1.7178307749838e-07
1.4052396715419e-07
2.0903594569907e-07
1.2524273643031e-07
1.9742814433311e-07
8.3616716633652e-08
1.5393634419656e-07
3.2870126437552e-08
8.2218351454273e-08
6.0877002191017e-09
2.4621999678738e-08
7.2522464730771e-10
3.860430779372e-09
1.2485939047548e-10
5.7233488419357e-10
2.266094889022e-11
1.0219857858251e-10
4.0866534925357e-12
1.8574295397684e-11
7.2429885001822e-13
3.3623546477123e-12
1.319238800979e-13
5.9237544152738e-13
3.0662511326902e-14
1.0131028858822e-13
9.7495964851042e-15
2.0982668354421e-14
3.4526971431373e-15
6.4206347877525e-15
1.237417845058e-15
2.2907205007979e-15
3.973707541267e-16
7.9281395954491e-16
1.0572064145531e-16
2.3804620577537e-16
2.4514048390587e-17
6.1076385379805e-17
5.5137453679361e-18
1.4360679062755e-17
1.2603182865992e-18
3.312298541037e-18
2.8985619568772e-19
7.6405405289766e-19
6.6044904206851e-20
1.7530929042078e-19
1.4857544529082e-20
3.9799531332274e-20
3.3085631752706e-21
8.9382927841773e-21
7.3101780933077e-22
1.9891638857563e-21
1.604175574851e-22
4.3925955934589e-22
3.4981298001181e-23
9.633151709225e-23
7.5838257261746e-24
2.0993033133085e-23
1.6353649972669e-24
4.5485347992351e-24
3.5091254482368e-25
9.8030799118948e-25
7.4954933626096e-26
2.1024606460349e-25
1.5942561256795e-26
4.4887394875374e-26
3.37750626781e-27
9.5431167876723e-27
7.1289390055707e-28
2.0209146035658e-27
1.4994894943694e-28
4.2638999044312e-28
3.1436999184858e-29
8.9653146984269e-29
6.5705045612043e-30
1.8789363770335e-29
1.3692722455915e-30
3.925786896429e-30
2.8456490167331e-31
8.1786624387426e-31
5.8984052285199e-32
1.6992026179295e-31
1.2195676316438e-32
3.5210820664816e-32
2.5156312213782e-33
7.2783177156357e-33
5.1773278938573e-34
1.5009323527211e-33
1.063227519444e-34
3.0882602549636e-34
2.1789618159127e-35
6.3406417141774e-35
4.4567066050891e-36
1.2991514836272e-35
9.0981902346366e-37
2.6566325127857e-36
1.8539827537036e-37
5.4223000791244e-37
3.7713521528399e-38
1.104711590946e-37
7.6587564046891e-39
2.2467686809165e-38
1.5528033537308e-39
4.5618473564492e-39
3.1433831456551e-40
9.2474746466358e-40
6.3536743698622e-41
1.8716774633928e-40
1.2823958166869e-41
3.7825814900578e-41
2.584700322547e-42
7.6333922865323e-42
5.2024695593824e-43
1.5382970237597e-42
1.0457776059567e-43
3.0958242849168e-43
2.0995090514034e-44
6.2222143256807e-44
4.2098055579076e-45
1.2490052578072e-44
8.4311841302459e-46
2.5040981684383e-45
1.6866032435419e-46
5.0144407345197e-46
3.3701553699005e-47
1.0029821505759e-46
6.7268796764124e-48
2.0039098823394e-47
1.3412742654464e-48
3.9993690732254e-48
2.6716191972023e-49
7.9734536509515e-49
5.316144869025e-50
1.5880198422119e-49
1.0568079287114e-50
3.1595994482191e-50
2.0988602799284e-51
6.2803875466993e-51
4.1645677593828e-52
1.24718338947e-51
8.2559214392993e-53
2.4744251832702e-52
1.6352352428272e-53
4.9048835130332e-53
3.236111265117e-54
9.7141148884272e-54
6.3988841264719e-55
1.9222388395761e-54
1.2642453268166e-55
3.8005816499892e-55
2.49581940606e-56
7.5082732483847e-56
4.9233159279227e-57
1.482127945612e-56
9.7044908845248e-58
2.9234452814557e-57
1.9114624872553e-58
5.7620312779619e-58
3.7622179733227e-59
1.1348411079541e-58
7.3997078534415e-60
2.2334716117946e-59
1.4543745192352e-60
4.3925792425003e-60
2.8576371888742e-61
8.6325201278016e-61
5.5659851701745e-62
1.6970858891879e-61
1.2332071275936e-62
3.2615127262877e-62
8.6543472500393e-63
0
0
0
0
0
0
0
0
0
0
0
0
5.2047430749892e-13
2.3178423628637e-13
1.5090214964026e-11
6.8380124881556e-12
2.0445281837152e-10
1.0445544426901e-10
1.6008622611312e-09
9.2823122119383e-10
8.8322698532558e-09
5.2749344669768e-09
4.7126664501163e-08
2.6100249828863e-08
2.8558804697641e-07
1.5391525621966e-07
1.505882382536e-06
9.7847778738061e-07
3.8336831633277e-06
3.897616043448e-06
4.0928042855612e-06
6.0048264378679e-06
3.6425887302836e-06
5.7499482578299e-06
2.4546235714131e-06
4.5104100185155e-06
1.0022656348465e-06
2.461138714361e-06
1.9160336930729e-07
7.5789794194178e-07
2.3132866788601e-08
1.2039888124171e-07
3.9930273565364e-09
1.8496718620637e-08
7.515523984634e-10
3.3779816698691e-09
1.3985738610712e-10
6.2972050537692e-10
2.5971595864488e-11
1.1714950761513e-10
4.7963385309943e-12
2.17499795697e-11
8.8034214273614e-13
4.0140511693607e-12
1.8277262042328e-13
7.1779427340211e-13
5.4204067095231e-14
1.359935707927e-13
2.1476644457978e-14
3.6786527809841e-14
8.702156701434e-15
1.4177457327858e-14
2.9861714862844e-15
5.3877745695351e-15
8.2076903757375e-16
1.7192945011668e-15
1.952808346201e-16
4.5949512875449e-16
4.5014817030786e-17
1.1152630431986e-16
1.0507079977619e-17
2.6393099755825e-17
2.4600929940173e-18
6.2188250336864e-18
5.6997220521939e-19
1.4540079871584e-18
1.3029654158102e-19
3.3595244703711e-19
2.9459249582946e-20
7.6709163971348e-20
6.6022020201118e-21
1.7338093545591e-20
1.4683310325965e-21
3.8847839531064e-21
3.2427448134697e-22
8.6370008126226e-22
7.1154831567922e-23
1.906793503426e-22
1.5521435027106e-23
4.1827019027494e-23
3.367453688561e-24
9.1213129308405e-24
7.2693054747357e-25
1.9783778196512e-24
1.5619337830392e-25
4.2696332038024e-25
3.3415619635343e-26
9.1718653800018e-26
7.1199550067235e-27
1.9617734236781e-26
1.5113202033121e-27
4.1791427550091e-27
3.1965888509739e-28
8.8691690340118e-28
6.7384196220292e-29
1.8755779130718e-28
1.4159628902222e-29
3.9530585411856e-29
2.966487352619e-30
8.305361186794e-30
6.1972324821913e-31
1.7397420353372e-30
1.2911595686032e-31
3.633956902984e-31
2.6831568066634e-32
7.5701618297737e-32
5.562229347922e-33
1.5729609071231e-32
1.1503689085687e-33
3.2603972840284e-33
2.3738643905097e-34
6.7423520576454e-34
4.888179034592e-35
1.3911871540572e-34
1.0044994944465e-35
2.8644064125455e-35
2.0601560654106e-36
5.8856913613601e-36
4.21727838673e-37
1.2070084345575e-36
8.617433960887e-38
2.4706255371222e-37
1.7577900910156e-38
5.047996107653e-38
3.5795415514622e-39
1.0296182918106e-38
7.2775547543676e-40
2.0965562693356e-39
1.4772909343686e-40
4.2622219186582e-40
2.9942803053457e-41
8.6514631099551e-41
6.0601983510337e-42
1.7534376755082e-41
1.2248138325756e-42
3.5486273174977e-42
2.4720768536021e-43
7.1716741982786e-43
4.9828894306452e-44
1.4474065327968e-43
1.0031034555703e-44
2.9173531896264e-44
2.0168439880757e-45
5.8726448013545e-45
4.0502055560193e-46
1.1807054046367e-45
8.1241009948152e-47
2.3709832653579e-46
1.6277272543056e-47
4.7556491142074e-47
3.2576913822399e-48
9.5279623929363e-48
6.5128863758755e-49
1.9068347012856e-48
1.3007235594531e-49
3.8120806240618e-49
2.5951148381124e-50
7.6130690939443e-50
5.1724920073993e-51
1.5188616630789e-50
1.0299730474974e-51
3.0272549268854e-51
2.0490158809053e-52
6.027860237618e-52
4.0725688186897e-53
1.1991441059795e-52
8.0873265731406e-54
2.3833278425855e-53
1.6045911025949e-54
4.7327130607328e-54
3.1809414069919e-55
9.3898774652994e-55
6.3006817207104e-56
1.8614100524682e-55
1.2470054712958e-56
3.6869329057667e-56
2.466074293241e-57
7.2968901080908e-57
4.8731414855877e-58
1.4430047518545e-57
9.6222519901562e-59
2.8514366458759e-58
1.8992531713273e-59
5.630054126634e-59
3.7162765610035e-60
1.1119097614511e-59
8.2711264839863e-61
2.1472276049271e-60
5.7236306643394e-61
0
0
0
0
0
0
0
0
0
0
2.0733675506822e-13
8.8101944345573e-14
8.8618507001408e-12
3.3896246285421e-12
1.6433524228616e-10
6.6239842573643e-11
1.9156900619397e-09
8.3402204326507e-10
1.5226952525708e-08
7.3786047966687e-09
8.6756513148364e-08
4.6671885314023e-08
4.0051376865876e-07
2.2200569205777e-07
1.8216204946382e-06
9.6314758201669e-07
8.97248384394e-06
4.6589291330402e-06
3.6826388574334e-05
2.3864399211239e-05
8.2115230482807e-05
9.219853418701e-05
8.3441762395349e-05
0.0001398264445887
5.9926235803582e-05
0.00012149945841927
2.3954967740961e-05
6.4942980523239e-05
3.9124441117709e-06
1.7033228100722e-05
4.767376073494e-07
2.4728692923957e-06
8.5218822787668e-08
3.9349992879617e-07
1.6360809898594e-08
7.3445864728702e-08
3.0810942498416e-09
1.3854272193666e-08
5.7984992683382e-10
2.6080794730823e-09
1.0906440840084e-10
4.9064638600169e-10
2.0477002796921e-11
9.2253176722935e-11
3.8294500331463e-12
1.7299928033354e-11
7.3759452331166e-13
3.2122413653558e-12
1.8991693452982e-13
6.0302648936798e-13
7.5848053312021e-14
1.3990575000323e-13
3.2383533821539e-14
5.029268780912e-14
1.1477703786012e-14
1.9586500227208e-14
3.2824100567943e-15
6.5014318457198e-15
8.1535015582422e-16
1.8148074923857e-15
1.9394093472604e-16
4.573666549456e-16
4.6183871195064e-17
1.1120618775112e-16
1.0983151778517e-17
2.6732343270417e-17
2.5822375482659e-18
6.3565835885416e-18
5.9870055912743e-19
1.4915652806084e-18
1.3716737333977e-19
3.4550568345317e-19
3.1121010700589e-20
7.9141746972791e-20
7.0011020446604e-21
1.7954000566564e-20
1.5629355034704e-21
4.0383363924243e-21
3.4647589233916e-22
9.0136030329864e-22
7.631794732175e-23
1.9978294389682e-22
1.6712177431812e-23
4.3999588998981e-23
3.6399224181283e-24
9.6338243523145e-24
7.8882100311119e-25
2.0980114178185e-24
1.7015539633016e-25
4.5462153121669e-25
3.65451860365e-26
9.8056956043476e-26
7.8172379048518e-27
2.1058570243055e-26
1.6658047533056e-27
4.5042501745496e-27
3.5370448304751e-28
9.5977136625966e-28
7.484993851641e-29
2.0378042179573e-28
1.5789097753953e-29
4.3121602630836e-29
3.3205620125835e-30
9.0958934435226e-30
6.9634017978421e-31
1.9128769409025e-30
1.4562921705806e-31
4.0113154254773e-31
3.0377321441662e-32
8.3889210661012e-32
6.3208671641105e-33
1.749852400938e-32
1.3121348726006e-33
3.641035244649e-33
2.7176893041232e-34
7.5583107184768e-34
5.6167146765962e-35
1.5654735341824e-34
1.1584172235796e-35
3.2354107895247e-35
2.3844268172543e-36
6.6728993245383e-36
4.8986142744382e-37
1.373527343377e-36
1.0045336844996e-37
2.821833885639e-37
2.0563052266839e-38
5.7866690344721e-38
4.2021395868354e-39
1.1845642533983e-38
8.5731327760649e-40
2.4207464803753e-39
1.7463032056383e-40
4.9388631330226e-40
3.551683280587e-41
1.0060427823439e-40
7.2128259773483e-42
2.046167004024e-41
1.4626967507265e-42
4.1554971002699e-42
2.9621062438752e-43
8.4271959848651e-43
5.9905032718872e-44
1.7066373078348e-43
1.2099299613157e-44
3.4515662586675e-44
2.4406663409719e-45
6.9714945698252e-45
4.9172698571832e-46
1.4063300289199e-45
9.8951537252076e-47
2.8334558015819e-46
1.9889259870831e-47
5.7020216348396e-47
3.9932481745585e-48
1.1461439812457e-47
8.0086438777895e-49
2.3012372573827e-48
1.6044621250245e-49
4.6153951536895e-49
3.211071781327e-50
9.2468633611206e-50
6.4199603065107e-51
1.8506755057625e-50
1.2822942400194e-51
3.7002247827715e-51
2.5587439638315e-52
7.3909310156845e-52
5.1010560566609e-53
1.4748714027831e-52
1.016008654716e-53
2.9403798921131e-53
2.0218470368807e-54
5.8567531901421e-54
4.0199617759482e-55
1.1655317477631e-54
7.9859592489347e-56
2.317470150148e-55
1.5851581205173e-56
4.6040052763901e-56
3.1438314177225e-57
9.1389942393814e-57
6.2324135247093e-58
1.8125520352968e-57
1.2248667549828e-58
3.5954528471783e-58
2.7379864607501e-59
6.9754195248791e-59
1.8674839715041e-59
0
0
0
0
0
0
0
0
0
0
2.3638951000775e-12
7.9416695957353e-13
7.0830983152811e-11
2.4322119262696e-11
1.1011345773945e-09
4.0373794391589e-10
1.137709310912e-08
4.4834634364128e-09
8.7122781836385e-08
3.7362341366138e-08
5.1929778328584e-07
2.445393717736e-07
2.4989624870202e-06
1.2721031516715e-06
1.0560567412991e-05
5.5456131976403e-06
4.3885084342428e-05
2.2952141131527e-05
0.00018549189461846
0.00010150686488434
0.00077779399403366
0.00051108436862436
0.0016429089910707
0.0015679817907072
0.0014177888985113
0.0017010820200561
0.00053052696619421
0.0013077941167741
7.5163089436905e-05
0.00039739131046497
1.0077618757904e-05
5.3396790735897e-05
1.8384075765877e-06
8.5378200088023e-06
3.5126139373039e-07
1.5845731290796e-06
6.6298995092215e-08
2.9841856430855e-07
1.2514596217429e-08
5.6309271384349e-08
2.3618083643046e-09
1.0627063791279e-08
4.4556420453213e-10
2.0053198507164e-09
8.3960248776101e-11
3.7831565642192e-10
1.5767609279927e-11
7.1299353707682e-11
2.9825481243627e-12
1.3390710002397e-11
6.6213394415582e-13
2.4682554068803e-12
2.2215265409681e-13
5.1200474915091e-13
9.6314206476949e-14
1.5404385134338e-13
3.4845189509846e-14
5.8155187551485e-14
9.8575892220835e-15
1.9114000868197e-14
2.4567917474992e-15
5.3209544541938e-15
5.9432655537579e-16
1.3549764854059e-15
1.436235790786e-16
3.3422427163884e-16
3.4474341453703e-17
8.1272812717425e-17
8.167280333822e-18
1.9501775998781e-17
1.9086328767954e-18
4.6147484969823e-18
4.408266338246e-19
1.0779371458285e-18
1.0080814341431e-19
2.489569216362e-19
2.2851885044213e-20
5.6933149646715e-20
5.1394529271822e-21
1.2906050626063e-20
1.1475970080223e-21
2.9025988758351e-21
2.5457148289828e-22
6.481315193478e-22
5.6132278270698e-23
1.4377820580577e-22
1.2308408829143e-23
3.1703756303575e-23
2.685069926931e-24
6.9521510332518e-24
5.8294918373489e-25
1.5166876027986e-24
1.2599881539614e-25
3.2930481611939e-25
2.7119840840463e-26
7.118096729341e-26
5.8143898454626e-27
1.5322069061102e-26
1.2419894173063e-27
3.2852600810983e-27
2.6437430409106e-28
7.0181234500158e-28
5.6090684556225e-29
1.4940383366312e-28
1.1863359076091e-29
3.1701096283489e-29
2.5017213468103e-30
6.7055389298942e-30
5.2607510276162e-31
1.4141929099165e-30
1.1032967298413e-31
2.9741457204318e-31
2.307950119e-32
6.2381025558143e-32
4.816147108489e-33
1.3050677504061e-32
1.0026709794666e-33
2.7236637952602e-33
2.0827896956364e-34
5.6710027796087e-34
4.3171848044964e-35
1.1781346978579e-34
8.9302048262252e-36
2.4422979388162e-35
1.8435828785549e-36
5.0525217204694e-36
3.7987182607334e-37
1.0431780072506e-36
7.8129559104909e-38
2.149720455579e-37
1.6040813631271e-38
4.421906275751e-38
3.2877388609912e-39
9.0796658715481e-39
6.7275008225459e-40
1.8611874659291e-39
1.3744214244332e-40
3.8088675582294e-40
2.8036168053208e-41
7.7823593442606e-41
5.7104669450934e-42
1.5876661423341e-41
1.1614468340015e-42
3.2341577696404e-42
2.3589636972513e-43
6.578665847985e-43
4.7847128574335e-44
1.3363139575611e-43
9.6921646026413e-45
2.7107639556872e-44
1.9607972699529e-45
5.4916769746989e-45
3.9619369273273e-46
1.1111304920392e-45
7.9957751584171e-47
2.245369793179e-46
1.611781804324e-47
4.5319864475971e-47
3.2453268431878e-48
9.1365396496731e-48
6.5272523341435e-49
1.8398446213335e-48
1.3113988720302e-49
3.7008378427955e-49
2.6319873075964e-50
7.4362013279511e-50
5.277023007154e-51
1.49261062485e-50
1.0569672960992e-51
2.9929388959496e-51
2.1150088038955e-52
5.9953736243668e-52
4.2281574635587e-53
1.1998098837768e-52
8.4447800782644e-54
2.3988145285343e-53
1.6851293172819e-54
4.7915809699244e-54
3.3596593952162e-55
9.5624323993365e-55
6.6923122166367e-56
1.9066686265412e-55
1.3324188602021e-56
3.7983023513317e-56
2.6300240790136e-57
7.5672663622175e-57
5.9043111639518e-58
1.474850939988e-57
3.9655321708077e-58
0
0
0
0
0
0
0
0
0
2.0868955632951e-31
1.3094280944216e-11
3.7575354577621e-12
3.5841115051134e-10
1.0864645225119e-10
5.2401288619161e-09
1.6901495761136e-09
5.2322466126222e-08
1.821241103272e-08
3.9367823841831e-07
1.5012659853419e-07
2.3440343303627e-06
9.8524829638265e-07
1.1650412515678e-05
5.3531136106023e-06
5.0975819875692e-05
2.483151140219e-05
0.00021553195877574
0.00010970098537459
0.0010454427872957
0.00053992939307311
0.0035240596982741
0.0018041732405907
0.0044797568771455
0.002397807892346
0.0042088473396373
0.002443255769937
0.0033827135303614
0.0024233167878817
0.001379485001928
0.0020583832378663
0.00017260752275893
0.0009483817637254
2.5566949883908e-05
0.0001327649680945
4.8689933317461e-06
2.209520684127e-05
9.3375640597476e-07
4.1841000260141e-06
1.79242549396e-07
8.0161029955061e-07
3.439088648367e-08
1.5377674553444e-07
6.5929882944301e-09
2.9489711658709e-08
1.2627519979861e-09
5.6509533191572e-09
2.4154669505651e-10
1.0819987940648e-09
4.6084189567609e-11
2.0696306704938e-10
8.8038980462945e-12
3.9445958153519e-11
1.8364369786596e-12
7.4354630733664e-12
5.5781713858752e-13
1.4928382750551e-12
2.2478500392456e-13
3.9050971586585e-13
7.7459698961883e-14
1.3221401987143e-13
2.1788344247097e-14
4.1750986278211e-14
5.5195869153337e-15
1.1585933188653e-14
1.355729415185e-15
2.9798265874534e-15
3.3071828232486e-16
7.4266458415266e-16
7.9902182678094e-17
1.8208439288702e-16
1.9045252544003e-17
4.400055899542e-17
4.4795587001889e-18
1.0483468876928e-17
1.0415629512608e-18
2.4658920360878e-18
2.3978529575266e-19
5.7352680707931e-19
5.4717771846209e-20
1.320779014069e-19
1.2387133566986e-20
3.0148396368688e-20
2.7839383011661e-21
6.826996874176e-21
6.2153159528846e-22
1.5347628394553e-21
1.3791593049155e-22
3.427427900774e-22
3.0430973411928e-23
7.6075261089227e-23
6.6795161392839e-24
1.6790707620931e-23
1.4590114800061e-24
3.6865691069398e-24
3.1724611275704e-25
8.054901577586e-25
6.8688231950666e-26
1.7519502334044e-25
1.4812509867619e-26
3.7942971681245e-26
3.1822639198624e-27
8.1846608231407e-27
6.8123419620488e-28
1.7588573458323e-27
1.4534249537151e-28
3.7662790964944e-28
3.0910120553509e-29
8.0376569253212e-29
6.553756680222e-30
1.7098476698031e-29
1.3855602851754e-30
3.6263182300207e-30
2.9212248925071e-31
7.6686489416878e-31
6.1427591783268e-32
1.6172425549096e-31
1.2884613143716e-32
3.4016471640571e-32
2.6960971403341e-33
7.1369327743853e-33
5.6285892259784e-34
1.4937881973934e-33
1.1724763947206e-34
3.1193572056296e-34
2.437177674895e-35
6.499508548596e-35
5.0557358269237e-36
1.3513667907084e-35
1.0467163445083e-36
2.8040053825543e-36
2.1629795620761e-37
5.806717185392e-37
4.4615326240524e-38
1.2002178064072e-37
9.1865351607238e-39
2.4762614229109e-38
1.8883461886684e-39
5.0999712140701e-39
3.8752385621574e-40
1.0485761317783e-39
7.9400937794742e-41
2.1523751953189e-40
1.6243714701277e-41
4.4110824700054e-41
3.3181699769274e-42
9.0261749829095e-42
6.768390656505e-43
1.8442284956288e-42
1.378683826267e-43
3.7626869470653e-43
2.8044936447368e-44
7.6660704128001e-44
5.6973373218319e-45
1.5597569700019e-44
1.155935157932e-45
3.1693315488473e-45
2.3423656893085e-46
6.4316352794072e-46
4.7407878507916e-47
1.3035682526238e-46
9.5837437698214e-48
2.6388803663497e-47
1.9351843619108e-48
5.3357252303387e-48
3.9032379024181e-49
1.0776275507637e-48
7.8642211714947e-50
2.1739945497477e-49
1.5828013554657e-50
4.3810202785198e-50
3.182354784127e-51
8.8192391041924e-51
6.3919488721732e-52
1.7735258284156e-51
1.2825995951332e-52
3.5629153870053e-52
2.5711782361267e-53
7.1506529422857e-53
5.1495183730022e-54
1.4337329271396e-53
1.0303794175056e-54
2.8719952444714e-54
2.0605536810147e-55
5.7475649551714e-55
4.0855016540781e-56
1.1502232842719e-55
9.2125470586183e-57
2.252432561152e-56
6.0831575634695e-57
0
0
0
0
0
0
0
0
1.897177105902e-31
1.8971845739305e-32
4.4596303335116e-11
1.0465031056159e-11
1.2496106543694e-09
3.1245384990187e-10
1.8284700172928e-08
4.8675176026863e-09
1.8620948659015e-07
5.3498785264731e-08
1.4585773222998e-06
4.5815316383351e-07
9.0751410879944e-06
3.1843648074333e-06
4.6851098880842e-05
1.8402679980452e-05
0.00022021425078258
9.5666086739957e-05
0.0011310326044701
0.00054443388294747
0.0037210856625697
0.0018639116532339
0.0047881623448683
0.0024058341656322
0.0049153748042996
0.0024775206409219
0.0049112436593819
0.0024902031693238
0.0048726445834603
0.002485483898787
0.00439376105963
0.0024645277821027
0.0020787024692267
0.0023070615047921
0.00025638193276984
0.0012605534554703
3.588108276402e-05
0.00018449609993981
7.1884255684962e-06
3.1386177498143e-05
1.4204244802928e-06
6.1703090280273e-06
2.802962005617e-07
1.2206244737583e-06
5.5243220652848e-08
2.4106724479693e-07
1.0871355881296e-08
4.7537476747474e-08
2.1362306682873e-09
9.3585331476782e-09
4.1913139138858e-10
1.8393777711917e-09
8.2050615801837e-11
3.6090657998173e-10
1.6116130080297e-11
7.0537020851431e-11
3.4119904039744e-12
1.3685183642813e-11
1.0497993119645e-12
2.7846389354512e-12
4.0469033874079e-13
7.2077998187474e-13
1.3352710663067e-13
2.3045670933378e-13
3.7059579486309e-14
7.0005216200233e-14
9.4608731117261e-15
1.9213561320786e-14
2.3513302072102e-15
4.9634748227864e-15
5.7842462293758e-16
1.246799003632e-15
1.4059355147414e-16
3.078751952524e-16
3.3703855374547e-17
7.4882692399978e-17
7.9760522438476e-18
1.7958087320213e-17
1.8664903326148e-18
4.2526639605393e-18
4.3250859599467e-19
9.9596101201933e-19
9.9343724696673e-20
2.3096620239769e-19
2.2637032422837e-20
5.3090453055402e-20
5.1207735543463e-21
1.2106196422705e-20
1.1506712671002e-21
2.7404935070058e-21
2.5697712309106e-22
6.1623005697178e-22
5.7064245499933e-23
1.3771398848618e-22
1.2604774205194e-23
3.0600844697416e-23
2.7705268880949e-24
6.7636961683644e-24
6.0615544696348e-25
1.4875966330303e-24
1.3204551185035e-25
3.2566785591196e-25
2.8647885168864e-26
7.0986703710782e-26
6.1914364625396e-27
1.5410012101982e-26
1.3332499612848e-27
3.3323728631312e-27
2.8611216505688e-28
7.179932437815e-28
6.119864658095e-29
1.5416532627442e-28
1.3049622449631e-29
3.2993542015853e-29
2.7743996871634e-30
7.0390992276019e-30
5.8818563439911e-31
1.4973233440123e-30
1.2436238077929e-31
3.1760253161603e-31
2.622670986429e-32
6.7185757701893e-32
5.517293986568e-33
1.4175763420346e-32
1.1579240990535e-33
2.9835900551486e-33
2.4246379818989e-34
6.2646894319735e-34
5.0659988583459e-35
1.3124082454616e-34
1.0562597820327e-35
2.7433802298486e-35
2.1978485251527e-36
5.7225147315228e-36
4.5643399617296e-37
1.1912576018878e-36
9.4610952925025e-38
2.4749946214829e-37
1.9575656560386e-38
5.1324264579424e-38
4.0432393297972e-39
1.0623790283615e-38
8.3369270356454e-40
2.1951859653495e-39
1.7162078819018e-40
4.5281786945792e-40
3.5273111934621e-41
9.325243786364e-41
7.238509487388e-42
1.917361331842e-41
1.4832229063106e-42
3.9361935200822e-42
3.0348345484573e-43
8.0685987990417e-43
6.2008812521316e-44
1.6515376979889e-43
1.2652583640112e-44
3.3757175696878e-44
2.5782748813035e-45