/*--------------------------------*- C++ -*----------------------------------*\
  =========                 |
  \\      /  F ield         | OpenFOAM: The Open Source CFD Toolbox
   \\    /   O peration     | Website:  https://openfoam.org
    \\  /    A nd           | Version:  7
     \\/     M anipulation  |
\*---------------------------------------------------------------------------*/
FoamFile
{
    version     2.0;
    format      ascii;
    class       volScalarField;
    location    "0.4";
    object      alpha.water;
}
// * * * * * * * * * * * * * * * * * * * * * * * * * * * * * * * * * * * * * //

dimensions      [0 0 0 0 0 0 0];

internalField   nonuniform List<scalar> 
6000
(
0
0
0
0
0
0
0
0
0
0
0
0
0
0
0
0
0
0
0
0
0
0
0
0
0
0
0
0
0
0
0
0
0
0
0
0
0
0
0
0
0
0
0
0
0
0
0
0
0
0
0
0
0
0
0
0
0
0
0
0
0
0
0
0
0
0
0
0
0
0
0
0
0
0
0
0
0
0
0
0
0
0
0
0
0
0
0
0
0
0
0
0
0
0
0
0
0
0
0
0
0
0
0
0
0
0
0
0
0
0
0
0
0
0
0
0
0
0
0
0
0
0
0
0
0
0
0
0
0
0
0
0
0
0
0
0
0
0
0
0
0
0
0
0
0
0
0
0
0
0
0
0
0
0
0
0
0
0
0
0
0
0
0
0
0
0
0
0
0
0
0
0
0
0
0
0
0
0
0
0
0
0
0
0
0
0
0
0
0
0
0
0
0
0
0
0
0
0
0
0
0
0
0
0
0
0
0
0
0
0
0
0
0
0
0
0
0
0
0
0
0
0
0
0
0
0
0
0
0
0
0
0
0
0
0
0
0
0
0
0
0
0
0
0
0
0
0
0
0
0
0
0
0
0
0
0
0
0
0
0
0
0
0
0
0
0
0
0
0
0
0
0
0
0
0
0
0
0
0
0
0
0
0
0
0
0
0
0
0
0
0
0
0
0
0
0
0
0
0
0
0
0
0
0
0
0
0
0
0
0
0
0
0
0
0
0
0
1.8146225099034e-38
5.9875168676299e-38
2.0957836991562e-37
5.6946346204811e-37
1.1358392435883e-36
8.5717590166702e-37
4.0503339255572e-37
7.7552622611229e-38
7.5482795328546e-39
4.5909351965194e-40
7.4602508015088e-41
1.4698299450618e-41
2.7677063658484e-42
1.1863850081548e-42
1.1519972020556e-43
1.9640869361855e-44
8.8458156163302e-45
8.3625462785512e-46
3.28129654063e-46
3.2632576189138e-47
5.504219242556e-48
1.0582399833525e-48
2.0382472442468e-49
4.729144697193e-50
1.2167354744838e-50
1.5068409848468e-51
2.7265851100387e-52
6.3314029870503e-53
1.0139043763964e-53
2.3779849460202e-54
5.8900228055105e-55
2.0030410944216e-55
5.2208845112368e-56
6.3985791738655e-57
6.613409254083e-58
1.1833175029823e-58
4.9933412539036e-59
5.0413889451186e-60
8.6807469161224e-61
3.7939539900404e-61
3.6737494662734e-62
1.4641080312331e-62
1.4424304644336e-63
2.4800847693039e-64
1.0554665910778e-64
1.0398305799003e-65
3.8171002245172e-66
3.9901546315489e-67
6.9582030027226e-68
2.8931494406696e-68
2.8887319825798e-69
1.0821293792081e-69
1.1153683093337e-70
1.9306153312299e-71
9.4013095550909e-72
1.5718152260814e-72
3.5911809850389e-73
3.3448109324261e-74
5.773584033579e-75
2.1066914975831e-75
2.3420206270286e-76
2.8222079467741e-77
7.6108534894052e-78
1.4626168045487e-78
5.3191942916363e-79
1.6025060900338e-79
3.712792179602e-80
7.7741833508224e-81
1.3180448948959e-81
1.1098980180853e-82
1.8767876332463e-83
8.2056767170444e-84
1.8518849854309e-84
1.5889056728199e-85
4.8903627934223e-86
1.3902630120504e-86
3.1630924634094e-87
6.4771105914312e-88
1.3243472394285e-88
1.1128113801194e-89
3.8313702229792e-90
8.2630048486726e-91
3.0537013298051e-91
0
0
0
0
0
0
0
0
0
1.3217802556922e-29
2.8025969286496e-46
0
2.0354382829321e-30
-4.4366108115466e-55
-8.7581154020301e-48
0
0
5.7854415138857e-33
7.1024628482947e-38
1.9028210338333e-37
5.3043395697531e-37
1.6688367982468e-35
3.1644691260015e-35
9.045911016919e-36
7.1178955730585e-38
1.5002397268217e-38
2.8866796442962e-39
5.3975894864416e-40
1.0333018725727e-40
1.971610984759e-41
6.0706272679778e-40
7.7662133933528e-43
1.4588997656443e-43
1.5268870638872e-41
5.7598493364096e-45
4.6067142822021e-42
4.5796239590278e-46
4.205666103666e-47
3.1270821918806e-45
1.5270693984025e-48
6.5673091254481e-47
2.1948727593011e-46
2.1325778026095e-50
2.0618041410609e-51
1.4871538911241e-49
2.7308134163964e-50
3.1026046562299e-50
2.9023988697061e-54
1.0962978084186e-50
3.7482234922603e-53
2.5414729711081e-56
4.7393378641396e-57
8.9584616517058e-58
1.0626321953784e-53
6.9711830623333e-58
6.5823224386238e-60
9.2870320875224e-56
2.5767917892697e-61
5.6924907801752e-57
9.9850055789873e-63
9.522262177238e-62
6.6678005977124e-59
7.3136995264883e-65
4.0688068313268e-60
2.8005128833084e-66
5.2723381849225e-67
4.4091752879872e-62
2.0453273483757e-68
2.4542954433022e-63
7.8390199891942e-70
4.0657469371053e-68
5.2393944329004e-65
3.2585619087916e-69
1.9472354746833e-66
2.3398288724905e-73
4.3947491439842e-74
3.6516811114758e-68
2.311661085049e-72
3.0762130030597e-76
7.6434325304837e-74
1.12470296624e-77
7.5936725352785e-73
2.9624676383005e-72
1.5137672343618e-73
1.8567403006083e-74
4.2624337422266e-74
2.6974329511315e-78
1.4567544605831e-82
3.050337741169e-77
1.1714384953447e-77
1.1359967162626e-84
1.8981737960329e-79
6.6678846493122e-79
3.0721359193449e-80
3.7886568372097e-81
8.7700677032532e-81
5.461987559917e-85
5.1839166144484e-82
1.6449538178857e-83
1.3541624539527e-83
0
0
0
0
0
0
0
4.4913981172759e-11
7.5736203244098e-10
6.1718385229887e-09
4.1687959745442e-08
3.4942378167558e-07
2.6316439294058e-06
1.0165521397487e-05
2.1610476303766e-05
2.6080868297399e-05
2.4444497322446e-05
1.878113508814e-05
9.9388108400938e-06
2.6665769556496e-06
2.2975221345077e-07
2.2160175096478e-09
-9.4270354857716e-13
0
2.597406131121e-19
2.3580353343932e-17
8.5932153393505e-13
1.2430168497548e-12
8.1308761162099e-13
3.5636221979255e-13
1.2787075574297e-13
3.6576448363473e-14
8.3606755513539e-15
1.7127342411374e-15
3.5935901940386e-16
7.9366443742348e-17
1.7770740526534e-17
3.9346430819693e-18
8.5987249069801e-19
1.8636177931366e-19
4.0162737348873e-20
8.6117270145908e-21
1.8375033411499e-21
3.9026706061178e-22
8.2535887297155e-23
1.7386342588247e-23
3.6490159855087e-24
7.6321827016242e-25
1.5911821053884e-25
3.307293812669e-26
6.8546153523919e-27
1.4168356745106e-27
2.9210871270662e-28
6.0077983711511e-29
1.2327767310208e-29
2.5240617147005e-30
5.1571105452423e-31
1.0515863923667e-31
2.1401963855029e-32
4.3477828452277e-33
8.8169944094816e-34
1.7850176994706e-34
3.6079661627606e-35
7.2812719044261e-36
1.4672432903377e-36
2.9523701207057e-37
5.9324700161846e-38
1.1904670804004e-38
2.3858115587467e-39
4.7754084372136e-40
9.5468095473901e-41
1.9063214181216e-41
3.8022444965404e-42
7.5753918452072e-43
1.5076678331943e-43
2.9974738098313e-44
5.9534305363099e-45
1.1812824304725e-45
2.341674808855e-46
4.6376407103008e-47
9.1764791541736e-48
1.814152752997e-48
3.5834412402365e-49
7.0723680058909e-50
1.3946865508315e-50
2.7481743089784e-51
5.4109832648518e-52
1.0645850977868e-52
2.0929775150494e-53
4.1118394440903e-54
8.0723926301797e-55
1.5836887168384e-55
3.1048841889648e-56
6.0832465697923e-57
1.1910933058573e-57
2.3307089398904e-58
4.5566339691127e-59
8.9575886924852e-60
1.5818337651716e-60
5.3912799962637e-61
0
0
0
0
0
0
4.3539857314945e-11
1.1545924253546e-09
1.6362078077887e-08
1.3702123906484e-07
7.4382136537563e-07
3.6794188717563e-06
2.2521850132169e-05
0.00014642491259504
0.00054998112833443
0.00076713900342314
0.00071772649661555
0.00055076931593136
0.00030117471501253
8.4372577282087e-05
8.0896095376412e-06
1.9622772523727e-07
2.014779869065e-08
4.8942848227972e-09
8.989097952449e-10
1.6854338749958e-10
3.3390811399086e-11
6.4962310792576e-12
5.2125641610333e-12
4.306601837067e-12
2.3897754436744e-12
9.5976904532933e-13
2.885629260972e-13
6.8358298172404e-14
1.448228324286e-14
3.1209346168492e-15
7.016781530205e-16
1.5942820828233e-16
3.5835007360778e-17
7.9520870383985e-18
1.7487670584659e-18
3.8202853236022e-19
8.2966635177565e-20
1.7918522347776e-20
3.8499567086465e-21
8.2326062194096e-22
1.7526801090727e-22
3.7160984891497e-23
7.8489261968785e-24
1.6518788817051e-24
3.4648682062824e-25
7.2447273450634e-26
1.5102966017154e-26
3.1396284577027e-27
6.5093072477858e-28
1.3461423210096e-28
2.7771619153427e-29
5.7163056253658e-30
1.1740317533465e-30
2.4062298227829e-31
4.921832438826e-32
1.0048142996892e-32
2.0476151610925e-33
4.16530118382e-34
8.4588231528696e-35
1.7150112309628e-35
3.4717126725521e-36
7.0172197431605e-37
1.4162963429553e-37
2.8545185535219e-38
5.7454226111397e-39
1.1548910579026e-39
2.3185074512701e-40
4.6488115948262e-41
9.3101783277545e-42
1.862397803984e-42
3.721348232862e-43
7.4277258738223e-44
1.4809920344712e-44
2.9498765971758e-45
5.86977725631e-46
1.1668576039249e-46
2.3174152714266e-47
4.5982273464966e-48
9.115656103148e-49
1.8055364254226e-49
3.5731801115731e-50
7.0655017827755e-51
1.3959803782401e-51
2.7559556682538e-52
5.4366307016454e-53
1.0716671209609e-53
2.1109110317578e-54
4.1549625739515e-55
8.1725615108062e-56
1.606404590018e-56
3.1546415303402e-57
6.2264821440426e-58
1.1100076124042e-58
3.7455954051061e-59
0
0
0
0
0
1.7625396916699e-11
6.4391133656479e-10
1.1660885094908e-08
1.4021739749284e-07
1.1851713820584e-06
7.1434798003275e-06
3.2810839788053e-05
0.00014255370090491
0.00071025169725923
0.0036143230477534
0.012559481423475
0.015613280237642
0.012892383762426
0.0069817404683981
0.0018261090161555
0.00013320978158461
4.2742613834563e-06
7.2049443749152e-07
1.6141054380756e-07
3.0065493096703e-08
5.6051750924699e-09
1.0552121698129e-09
2.0410900316796e-10
4.2997291558755e-11
1.5865293264528e-11
1.2356559050762e-11
8.2967369274914e-12
3.6315901290049e-12
1.1434001440965e-12
2.8659183932552e-13
6.3999144559071e-14
1.4223229186186e-14
3.245908406312e-15
7.4600394614476e-16
1.6978631744012e-16
3.8167666254749e-17
8.4979245041412e-18
1.8779015352941e-18
4.122557562729e-19
8.9951981175271e-20
1.9516715867546e-20
4.2125906825804e-21
9.0492312244378e-22
1.9352863464352e-22
4.1217627340189e-23
8.7446669476288e-24
1.8485531158941e-24
3.8944316913873e-25
8.1783481348324e-26
1.7122778717522e-26
3.5747100350367e-27
7.4426900609089e-28
1.5456130263573e-28
3.2018995091237e-29
6.6176045825745e-30
1.3646660718902e-30
2.8081952304337e-31
5.7669117521358e-32
1.1819835430531e-32
2.4180549871773e-33
4.9378712489108e-34
1.0066125859893e-34
2.0486238634017e-35
4.1626119030729e-36
8.4449757314387e-37
1.71073678789e-37
3.4605287976304e-38
6.9903218757863e-39
1.4101558846978e-39
2.8409989815113e-40
5.7164553976313e-41
1.1488179851208e-41
2.3060054750077e-42
4.623484385122e-43
9.2596149942297e-44
1.8524426599855e-44
3.7020145904365e-45
7.3907002023454e-46
1.4740057977802e-46
2.9369087683965e-47
5.8461559390272e-48
1.1626515157435e-48
2.3101387724952e-49
4.5861221369205e-50
9.0966506074623e-51
1.8028296979723e-51
3.5700457182987e-52
7.0639399717052e-53
1.396633095333e-53
2.7592257310255e-54
5.4472045492354e-55
1.0743450935513e-55
2.1288270733123e-56
3.8282280276407e-57
1.2810580793097e-57
0
0
0
0
0
1.7162230065363e-10
4.8453635614498e-09
7.6135557523056e-08
8.0808897489986e-07
6.4286735211012e-06
4.0182030387956e-05
0.00020083465250896
0.00085152380197874
0.0034940868210366
0.015176644247636
0.068493515554503
0.24446824088388
0.31301639670167
0.1840150646312
0.041396701651628
0.0020924833852812
8.9598225511661e-05
1.7566223059585e-05
3.6075623889805e-06
6.7877651225835e-07
1.2764787239973e-07
2.4017631828704e-08
4.5342955981406e-09
8.6738830700998e-10
1.789235483253e-10
4.2522955357361e-11
2.9338451668293e-11
2.1406849834199e-11
1.0657324099696e-11
3.4334040947251e-12
8.5953698797252e-13
1.9579865371457e-13
4.465511425458e-14
1.0355012358189e-14
2.4007722627596e-15
5.5072700460228e-16
1.2488542535609e-16
2.8053233895621e-17
6.2525026323581e-18
1.3838939873552e-18
3.0435606166221e-19
6.654468292939e-20
1.4471032049552e-20
3.1312616852312e-21
6.7441893213584e-22
1.4463353570956e-22
3.0893001514615e-23
6.5737481194942e-24
1.3938842663726e-24
2.9457121218939e-25
6.205613035082e-26
1.3034172520656e-26
2.7299444626863e-27
5.7023947803451e-28
1.1880929734904e-28
2.4693654672295e-29
5.1204751730416e-30
1.0594237758165e-30
2.187283793194e-31
4.5066627414832e-32
9.2673468172344e-33
1.9021281597423e-33
3.8970820816889e-34
7.9704750722651e-35
1.6274265775816e-35
3.317547614219e-36
6.7523664497331e-37
1.372274666893e-37
2.7848008226903e-38
5.6433364614294e-39
1.142052401507e-39
2.3081442887874e-40
4.6589100411669e-41
9.3921901804452e-42
1.8911524204219e-42
3.8034564438315e-43
7.640768946198e-44
1.5332612967067e-44
3.0734696112069e-45
6.1544307763359e-46
1.2311333652873e-46
2.4603226416494e-47
4.9120163209841e-48
9.7975814404102e-49
1.9524478503611e-49
3.8873282349317e-50
7.7329203672024e-51
1.5369700342308e-51
3.0522875496968e-52
6.0566407868172e-53
1.2008719474175e-53
2.3786516365077e-54
4.7318749521281e-55
8.5799554615685e-56
2.850353681941e-56
0
0
0
0
1.0434520341065e-28
8.7619153740498e-10
2.3805189264389e-08
3.5411708225459e-07
3.6341601478629e-06
2.8328412451615e-05
0.00017516209689828
0.00090128384643773
0.0040441354769263
0.016798006815291
0.074765140940518
0.35597272315451
0.79757514789715
0.89172408073143
0.84067153635182
0.54640949553152
0.11981507406317
0.0055889302543978
0.00033945253498027
7.8404068628887e-05
1.4775345526157e-05
2.7836390295052e-06
5.2446057943635e-07
9.8855113136075e-08
1.8669901511523e-08
3.5578516138402e-09
6.9924347130466e-10
1.5668539764442e-10
7.1015696583552e-11
4.5928171126705e-11
2.3046542973595e-11
7.4293368912711e-12
1.8944806205983e-12
4.446457266269e-13
1.0361370524734e-13
2.4303948136016e-14
5.6765049150701e-15
1.311485963736e-15
2.9968420722618e-16
6.7845903390389e-17
1.5237672901078e-17
3.3978607379345e-18
7.5274735318102e-19
1.6576027293005e-19
3.6299842103449e-20
7.9086587658316e-21
1.7148793737003e-21
3.7020085392999e-22
7.9586504375052e-23
1.704321830507e-23
3.6364255610265e-24
7.7321409514349e-25
1.6387375315373e-25
3.4624129009322e-26
7.2941871302643e-27
1.5323803906397e-27
3.2107456518504e-28
6.7103988737374e-29
1.3990825499249e-29
2.9102932946071e-30
6.0404763139441e-31
1.2510834536022e-31
2.5859435800612e-32
5.334627151766e-33
1.0984334561271e-33
2.2576596880312e-34
4.6321947038698e-35
9.4882388326962e-36
1.9403506201987e-36
3.9618180680618e-37
8.0770197248234e-38
1.6442635799064e-38
3.3425326937491e-39
6.7855184236119e-40
1.3756621557501e-40
2.7853467767563e-41
5.6325101414437e-42
1.1376158526038e-42
2.2949604998596e-43
4.6243960246109e-44
9.3078355798097e-45
1.8714116076509e-45
3.7586280738018e-46
7.5412052305617e-47
1.511523809109e-47
3.0266557776945e-48
6.0547387990922e-49
1.2101027589398e-49
2.4163134152645e-50
4.820563436396e-51
9.6087014434331e-52
1.9136670932533e-52
3.8073416594508e-53
7.6048899791248e-54
1.3902880956983e-54
4.5884867267903e-55
0
0
0
0
-1.1210387714598e-45
2.8698345493953e-09
8.1063605513282e-08
1.2059593724207e-06
1.255597165075e-05
0.00010133762113371
0.00065572675026177
0.0034855421923048
0.016395994419934
0.078803150370571
0.38418067764421
0.83757561102983
0.97676970075195
0.99266561718914
0.99293924677981
0.96213548194116
0.74566513184602
0.19079380668582
0.011523131039374
0.00091149175477016
0.00020974575105782
4.0245006569842e-05
7.7086887195879e-06
1.4747493162577e-06
2.819642459972e-07
5.394336877551e-08
1.0374285174009e-08
2.0402594283275e-09
4.4886915452945e-10
1.5540401614956e-10
8.5750056961871e-11
3.9781402016828e-11
1.2487381856887e-11
3.2021975225771e-12
7.6772945482184e-13
1.8230185328767e-13
4.3247154545586e-14
1.0178535582795e-14
2.3687092699653e-15
5.4539371131421e-16
1.2442982004411e-16
2.8160320053913e-17
6.3267996241322e-18
1.4119928106373e-18
3.1319668143501e-19
6.9078721227104e-20
1.5156356381209e-20
3.3092382787585e-21
7.1925891297274e-22
1.5566553931609e-22
3.3555426002697e-23
7.2060610048594e-24
1.5420206665023e-24
3.2886927257225e-25
6.991552740812e-26
1.4818734862073e-26
3.1318427688098e-27
6.6008400080795e-28
1.387597352667e-28
2.9096666195459e-29
6.0867488907178e-30
1.2703796089146e-30
2.6456247495354e-31
5.4980351924332e-32
1.1402676987749e-32
2.3602577552779e-33
4.8763692532789e-34
1.0056518256606e-34
2.0703333639457e-35
4.2550099142308e-36
8.7307825328573e-37
1.788633514602e-37
3.6587035064496e-38
7.4729425074094e-39
1.5241737729442e-39
3.1043780366921e-40
6.3143685651571e-41
1.2826776677583e-41
2.6022779867787e-42
5.2729530966279e-43
1.067168524781e-43
2.1572731561558e-44
4.3559595442749e-45
8.785815000127e-46
1.7701586582271e-46
3.5627565284712e-47
7.1633357864564e-48
1.4388338026637e-48
2.8872382513825e-49
5.7881714514516e-50
1.1593017865652e-50
2.3198543786395e-51
4.6372564038426e-52
9.3030381323372e-53
1.71506527289e-53
5.6262442311421e-54
0
0
0
0
-1.4012984621764e-46
4.8584637177423e-09
1.4939468033675e-07
2.4162046771988e-06
2.8252523423862e-05
0.00025549166558832
0.0018577267397741
0.01140040996487
0.063339364009519
0.35009129489624
0.83335171724655
0.97677508662321
0.9937030300433
0.99745868794039
0.99827135956211
0.99820763101581
0.98093420337981
0.76572228618414
0.18530879708755
0.012212401421963
0.0014183260180464
0.00031929938911526
6.3277322353672e-05
1.2497114965681e-05
2.4619205514584e-06
4.8403352157487e-07
9.5129757809725e-08
1.8773981907152e-08
3.7973538695725e-09
8.5320242382001e-10
2.7942177471822e-10
1.3294854215402e-10
5.460531354358e-11
1.6254476936023e-11
4.1485846234912e-12
1.010990439823e-12
2.4412169628677e-13
5.855986789326e-14
1.3897805321039e-14
3.2605176640467e-15
7.5707606491863e-16
1.7420599817388e-16
3.9761618047535e-17
9.0085476153731e-18
2.0272191658337e-18
4.5335052492701e-19
1.0079956098622e-19
2.2292216737267e-20
4.9054214801135e-21
1.0744070174021e-21
2.3429174449466e-22
5.0880844952413e-23
1.1006859490724e-23
2.3723426134616e-24
5.095432830359e-25
1.0908171396802e-25
2.3278828244872e-26
4.953064233514e-27
1.0508743806501e-27
2.2235527435988e-28
4.6926220289173e-29
9.8787793720717e-30
2.0747001083436e-30
4.3472385737712e-31
9.089014040672e-32
1.8962771331466e-32
3.948234116057e-33
8.2045033271006e-34
1.7016896715525e-34
3.5230249263058e-35
7.2809050336357e-36
1.5021553380978e-36
3.0940570289976e-37
6.3628057669925e-38
1.3064645111097e-38
2.6785255282839e-39
5.4835623930537e-40
1.1210300938669e-40
2.2886374810835e-41
4.6661525833987e-42
9.5012168214388e-43
1.9322055538594e-43
3.9246053153532e-44
7.9619846151208e-45
1.6134030871242e-45
3.2656797119138e-46
6.6027653844795e-47
1.3335571453302e-47
2.6905577709184e-48
5.4228667311516e-49
1.0918975955244e-49
2.1964152601657e-50
4.4132815343479e-51
8.8964646019426e-52
1.6546150055566e-52
5.398162339325e-53
0
0
0
0
4.379057701015e-48
4.7262367450164e-09
1.4980015980108e-07
2.531861269367e-06
3.1862830476761e-05
0.00032645046100988
0.0030071663690608
0.026208575850456
0.20953876782328
0.75427043222179
0.97225881191573
0.99376053059385
0.99742117904003
0.99835547140754
0.9985473364081
0.99861378536007
0.99756739068467
0.97005893973294
0.63221272621428
0.11185232302049
0.0065683532825975
0.001013329317043
0.00023187351651658
4.7612418868113e-05
9.7809349962406e-06
2.0092070927573e-06
4.1297430429349e-07
8.5130915460414e-08
1.7759644584159e-08
3.8960636739465e-09
9.9679392360121e-10
3.6750079484403e-10
1.5770599832571e-10
5.5895802481731e-11
1.5579900543297e-11
3.9712066081491e-12
9.8782331148047e-13
2.4317201705402e-13
5.9155469974126e-14
1.4208159820355e-14
3.3727714922597e-15
7.923903546964e-16
1.8444800215406e-16
4.257604965969e-17
9.7527290575299e-18
2.2183346102632e-18
5.0130758673807e-19
1.1260687857447e-19
2.5153108827667e-20
5.5891621723306e-21
1.2358758846008e-21
2.7202328558359e-22
5.9615278797917e-23
1.3011743176081e-23
2.8290217350318e-24
6.128413087201e-25
1.3229740854001e-25
2.8465593186257e-26
6.1055238059688e-27
1.3056368285625e-27
2.7840494463061e-28
5.9202590594648e-29
1.2556368061513e-29
2.6564023261268e-30
5.6062696481824e-31
1.1804441361451e-31
2.4799713390049e-32
5.1989272556061e-33
1.087628588709e-33
2.2708018834263e-34
4.7319459809158e-35
9.842165862463e-36
2.0434257859659e-36
4.2351601172883e-37
8.7628975090759e-38
1.810153850913e-38
3.7333171165603e-39
7.6878804471165e-40
1.5807763187701e-40
3.2456752610878e-41
6.6546997620067e-42
1.3625665480629e-42
2.7861799838877e-43
5.6898185823235e-44
1.1604873733489e-44
2.3640109130657e-45
4.8099360621604e-46
9.7751413662033e-47
1.9843273765361e-47
4.0236690635875e-48
8.1500707183451e-49
1.6490908335323e-49
3.3328424341295e-50
6.7551824877521e-51
1.2681469862254e-51
4.1181167005279e-52
0
0
0
0
0
3.2923535140925e-09
1.1204785012236e-07
2.0228841187607e-06
2.674403134561e-05
0.00029148578962478
0.0028592398420684
0.029715754864199
0.3289571140325
0.87200307673583
0.98934290041057
0.99718964698136
0.99843272352584
0.998547507141
0.99862841764644
0.99866067145306
0.99805497868568
0.98717967144052
0.84925409568822
0.26862869596529
0.019898963390735
0.0020405835794659
0.00044934244474844
9.8341941057283e-05
2.0559387196158e-05
4.3069045116428e-06
9.0396817148548e-07
1.8987781351582e-07
4.0183967950212e-08
8.7781572191713e-09
2.1620712767555e-09
7.5608222254404e-10
3.3886551946715e-10
1.3144765850423e-10
4.0149359918833e-11
1.0893242497199e-11
2.8318140493571e-12
7.2221338582911e-13
1.8139199506587e-13
4.4885301958805e-14
1.095593327237e-14
2.6419189941611e-15
6.3021437939981e-16
1.4887321422224e-16
3.4856736212438e-17
8.0951703781809e-18
1.8660268631331e-18
4.2717888626891e-19
9.7167036080248e-20
2.1970379808865e-20
4.9401090229441e-21
1.1050164526045e-21
2.4596404170619e-22
5.4496580417577e-23
1.2021928805862e-23
2.6411236292053e-24
5.7797164217213e-25
1.2601239688866e-25
2.7377119358114e-26
5.9279235176075e-27
1.2794547329388e-27
2.7530680192336e-28
5.9065841313604e-29
1.2636797671302e-29
2.6963047585439e-30
5.738244718314e-31
1.2181790667437e-31
2.5799202614348e-32
5.4513381686534e-33
1.1493120707012e-33
2.4179372365789e-34
5.0764084746847e-35
1.0636605707626e-35
2.2244023893486e-36
4.6431716277835e-37
9.6746016795421e-38
2.0123011935748e-38
4.1784744207012e-39
8.6622273299454e-40
1.7928733055211e-40
3.705083093907e-41
7.6452876913985e-42
1.5752720599279e-42
3.2411615302103e-43
6.6595654386031e-44
1.3664924467187e-44
2.800270916088e-45
5.7311138201079e-46
1.1714891838461e-46
2.3917254670394e-47
4.877205664523e-48
9.9341880977472e-49
2.0209038698011e-49
4.1215024990747e-50
7.8138802448294e-51
2.5288644553496e-51
0
0
0
1.698955157678e-38
3.9559044958319e-32
1.1254881357381e-09
4.5092443176109e-08
9.4639405379796e-07
1.4117281331108e-05
0.00017148975318409
0.0018525970136553
0.022327164055218
0.28225632645237
0.84953265197035
0.98964554642593
0.99772826146798
0.99844136594645
0.99862775052508
0.9986614417313
0.99865129195863
0.99740425032406
0.98399542914004
0.84071353682622
0.27210477659813
0.023685628252911
0.002937605360574
0.00073743638780589
0.00018004335829217
3.8799165969779e-05
8.0159274339816e-06
1.6440460928005e-06
3.3724792238433e-07
6.9538385299344e-08
1.4828590157308e-08
3.6294003321242e-09
1.2636231817456e-09
5.6358512665232e-10
2.2904263273314e-10
7.6001098476034e-11
2.2023556240219e-11
6.0123933516808e-12
1.5953931100082e-12
4.1513822410859e-13
1.0615933024349e-13
2.6722905641324e-14
6.6333154978653e-15
1.6261660736764e-15
3.9421153815531e-16
9.4596302980327e-17
2.2489645253754e-17
5.3013368647629e-18
1.23985340572e-18
2.8786556334846e-19
6.6384439508609e-20
1.5212409097558e-20
3.4654660631269e-21
7.8508382521091e-22
1.7693116893956e-22
3.9678597398648e-23
8.8570656469516e-24
1.9683966688185e-24
4.3563534666321e-25
9.6031077788422e-26
2.1089292608281e-26
4.6147763908406e-27
1.0063497711461e-27
2.1873734666001e-28
4.7395165489457e-29
1.0238574386734e-29
2.2054270533324e-30
4.7374389593626e-31
1.014936997457e-31
2.1688174073806e-32
4.6231355455711e-33
9.8314788486164e-34
2.0859614743373e-34
4.4160450752109e-35
9.3289585376096e-36
1.9666912805085e-36
4.1378226395655e-37
8.6889635360584e-38
1.8211716092997e-38
3.8101811392011e-39
7.9574894398393e-40
1.6590707952466e-40
3.4532959848389e-41
7.1763459764914e-42
1.488995274283e-42
3.0847678668618e-43
6.3812958876914e-44
1.3181648750638e-44
2.7190772720887e-45
5.6011879275024e-46
1.1522870722335e-46
2.3674328379024e-47
4.8578845601417e-48
9.9546634352199e-49
2.0443342917119e-49
3.9158485398529e-50
1.2650651901407e-50
0
0
0
6.7988824755233e-38
2.2369119533307e-32
6.0182394895694e-11
3.7660104856316e-09
1.2075615699215e-07
2.5174271694693e-06
4.1679220105255e-05
0.00059401966526449
0.0079150304274653
0.11486235581271
0.68032207376956
0.9740446801645
0.99689689788098
0.99836212303494
0.9985740644104
0.99862775052508
0.99817250054366
0.99354522389127
0.9627444348155
0.7324599576361
0.18983595765461
0.019170985825929
0.0034324321424862
0.0008760659076931
0.00020860705986259
4.6760287090219e-05
1.0439466497772e-05
2.3255543167479e-06
5.1389793868731e-07
1.1265447216138e-07
2.4737780431675e-08
5.9109866792166e-09
1.8731153412019e-09
7.8824809796044e-10
3.2667893159412e-10
1.1485142857671e-10
3.517390619712e-11
1.0050972203341e-11
2.7724063543486e-12
7.4691821556264e-13
1.9727347911455e-13
5.1194227678299e-14
1.3079911676787e-14
3.2958398837706e-15
8.2019177979027e-16
2.0181703691822e-16
4.9149641086742e-17
1.1856873082893e-17
2.835478987945e-18
6.7261801938581e-19
1.5835898758537e-19
3.7022692992912e-20
8.5988433584849e-21
1.9848814167494e-21
4.5552295654203e-22
1.0397072415094e-22
2.3608477310597e-23
5.3345851060768e-24
1.1998272678462e-24
2.6867236482524e-25
5.991097007228e-26
1.3306217835738e-26
2.94406462765e-27
6.4902031499491e-28
1.4257918992155e-28
3.1217986778174e-29
6.813406531806e-30
1.482484911131e-30
3.2161420263524e-31
6.9574209999194e-32
1.5009827190328e-32
3.2296908191671e-33
6.9317846405392e-34
1.4841121955673e-34
3.1700239451261e-35
6.7556492748912e-36
1.4365249411011e-36
3.0481185625646e-37
6.4543521725668e-38
1.3639662320743e-38
2.8768115040285e-39
6.0562168126731e-40
1.2726173435081e-40
2.6694620561549e-41
5.5898632692596e-42
1.1685604352992e-42
2.4388991832634e-43
5.082161273313e-44
1.0573855923264e-44
2.1966777049256e-45
4.5568447610117e-46
9.4393749289778e-47
1.952634052554e-47
4.0333013868635e-48
8.3464843677942e-49
1.6157358863175e-49
5.2198134941472e-50
0
0
0
8.9538094231914e-38
1.0876689032687e-32
-2.8406510826576e-17
2.4460982105142e-11
1.8577925606528e-09
6.929138858853e-08
1.7853518675429e-06
3.63961156462e-05
0.00068142842606306
0.01486852571764
0.21098487069364
0.80498760147626
0.98636080431497
0.99714521591086
0.99828464574726
0.9976889155378
0.99350723475439
0.97166160093737
0.84938365677594
0.38233554811465
0.068384988866584
0.01269856151331
0.0032256198374694
0.0008335923382225
0.00020257426324677
4.7656604386352e-05
1.1002063615219e-05
2.5069986999255e-06
5.6533352114463e-07
1.2667888406947e-07
2.8990481195942e-08
7.2184072158501e-09
2.2761113079436e-09
9.3965298382182e-10
3.9214052022517e-10
1.4214095932112e-10
4.5362751962143e-11
1.351420147031e-11
3.8753822693019e-12
1.0820519795897e-12
2.9545299017378e-13
7.9106274641348e-14
2.0816662495479e-14
5.394137590506e-15
1.3785833552547e-15
3.479533073877e-16
8.683088137198e-17
2.1444106439569e-17
5.2454162072144e-18
1.2717519392934e-18
3.0580823055834e-19
7.2972838113988e-20
1.7288324872562e-20
4.0683336133174e-21
9.5131704408257e-22
2.2112378166383e-22
5.1108051080626e-23
1.1749431737584e-23
2.6874302340203e-24
6.117301067764e-25
1.3860721991935e-25
3.1268611743476e-26
7.0244883308877e-27
1.5717542049281e-27
3.5034294322602e-28
7.7805603392009e-29
1.7218785699806e-29
3.7977777095147e-30
8.3492865393475e-31
1.8298519170386e-31
3.9983428662369e-32
8.7114297726536e-33
1.8927326069109e-33
4.1013052831573e-34
8.8639687046036e-35
1.910934223841e-35
4.1097064383086e-36
8.8177478644408e-37
1.8876388816722e-37
4.0320457757821e-38
8.5942252486782e-39
1.828061409918e-39
3.880648600964e-40
8.2219121370246e-41
1.7386839746495e-41
3.6700419207986e-42
7.7329674103809e-43
1.6265498728644e-43
3.4155056005325e-44
7.160255928125e-45
1.4986724564115e-45
3.1318967184268e-46
6.5350608032681e-47
1.3614523644477e-47
2.8406976679654e-48
5.5586264183819e-49
1.7989420907892e-49
0
0
0
2.7059298054208e-38
7.1937281972355e-38
-1.0890999335081e-16
2.3961558042665e-12
7.7470569285142e-11
1.7519819191323e-09
3.4108297262885e-08
6.5367361505328e-07
1.3381983629211e-05
0.00044598083656564
0.018189748013107
0.19700926616502
0.7577907121326
0.97967596280353
0.99409835264813
0.98896324598691
0.96288628206967
0.83840181943485
0.40322449289342
0.082952478706137
0.020788866906936
0.0070421054388013
0.0021392022569376
0.0005781200790509
0.00015004615804776
3.7951168817084e-05
9.3633606523318e-06
2.2611680679941e-06
5.3705252270376e-07
1.2628144528872e-07
2.9933823491076e-08
7.5736639619463e-09
2.3918088143006e-09
9.708813957568e-10
4.0117187880474e-10
1.4657531766051e-10
4.782125461952e-11
1.4675626615166e-11
4.3523927468057e-12
1.2590854411809e-12
3.5595340018036e-13
9.8577397033614e-14
2.6798401855237e-14
7.1633557348547e-15
1.8856422092545e-15
4.8946145132369e-16
1.2543919097714e-16
3.1773840351522e-17
7.9624580958811e-18
1.9757377839864e-18
4.8577781786556e-19
1.1842852958183e-19
2.8644124837273e-20
6.8769559798365e-21
1.6395956189051e-21
3.8836111547168e-22
9.1422527270003e-23
2.1396055976556e-23
4.9797702430751e-24
1.1529237920874e-24
2.6559389984264e-25
6.0892505016206e-26
1.3897360156652e-26
3.1579916995897e-27
7.1462986878214e-28
1.6107150693286e-28
3.6165507475638e-29
8.0904945836071e-30
1.803526452808e-30
4.0067791646527e-31
8.8725571062483e-32
1.9585497317246e-32
4.310243333167e-33
9.4579419526354e-34
2.069488233611e-34
4.5158781955162e-35
9.8281946504032e-36
2.1335109907139e-36
4.6199906563592e-37
9.9803580643428e-38
2.1510082350804e-38
4.6255091272937e-39
9.9249357121546e-40
2.1250756356645e-40
4.5407354328382e-41
9.6829687802288e-42
2.0608467393856e-42
4.3778507488254e-43
9.2827483773066e-44
1.964780000442e-44
4.1513894877816e-45
8.7565862990452e-46
1.8439894781952e-46
3.8764868566359e-47
8.1595141667413e-48
1.6141132919497e-48
5.2417027629687e-49
0
0
0
7.0367709302799e-40
3.4238352713495e-35
-9.9145523743747e-18
2.5299648961695e-13
1.1317755851231e-11
2.4308929341338e-10
4.5485094414032e-09
7.8189136191069e-08
1.1743532459984e-06
1.9815020729528e-05
0.00041129301120054
0.012352260136469
0.13172253865317
0.53104191091117
0.8472080469188
0.8450686230317
0.70868026086833
0.34135977986062
0.077457088590205
0.018675245969286
0.0070026452083645
0.0027997368859265
0.00096968426830999
0.00029341398630807
8.2627431655392e-05
2.2593528932675e-05
6.0505090148207e-06
1.5839840779354e-06
4.058304476545e-07
1.0239054276828e-07
2.5770667137385e-08
6.9656651498087e-09
2.3304381910295e-09
9.5948822501866e-10
3.9186598774807e-10
1.4215358298014e-10
4.6660245015382e-11
1.4457103401818e-11