/*--------------------------------*- C++ -*----------------------------------*\
  =========                 |
  \\      /  F ield         | OpenFOAM: The Open Source CFD Toolbox
   \\    /   O peration     | Website:  https://openfoam.org
    \\  /    A nd           | Version:  7
     \\/     M anipulation  |
\*---------------------------------------------------------------------------*/
FoamFile
{
    version     2.0;
    format      ascii;
    class       surfaceScalarField;
    location    "2.4";
    object      alphaPhi0.water;
}
// * * * * * * * * * * * * * * * * * * * * * * * * * * * * * * * * * * * * * //

dimensions      [0 3 -1 0 0 0 0];

internalField   nonuniform List<scalar> 
11840
(
0
0
0
0
0
0
0
0
0
0
0
0
0
0
0
0
0
0
0
0
0
0
0
0
0
0
0
0
0
0
0
0
0
0
0
0
0
0
0
0
0
0
0
0
0
0
0
0
0
0
0
0
0
0
0
0
0
0
0
0
0
0
0
0
0
0
0
0
0
0
0
0
0
0
0
0
0
0
0
0
0
0
0
0
0
0
0
0
0
0
0
0
0
0
0
0
0
0
0
0
0
0
0
0
0
0
0
0
0
0
0
0
0
0
0
0
0
0
0
0
0
0
0
0
0
0
0
0
0
0
0
0
0
0
0
0
0
0
0
0
0
0
0
0
0
0
0
0
0
0
0
0
0
0
0
0
0
0
0
0
0
0
0
0
0
0
0
0
0
0
0
0
0
0
0
0
0
0
0
0
0
0
0
0
0
0
0
0
0
0
0
0
0
0
0
0
0
0
0
0
0
0
0
0
0
0
0
0
0
0
0
0
0
0
0
0
0
0
0
0
0
0
0
0
0
0
0
0
0
0
0
0
0
0
0
0
0
3.7871199781058e-206
-3.1865718359221e-222
6.168625312677e-206
3.0843126563385e-206
9.9299223376193e-206
4.9649586241876e-206
1.8751195353718e-206
8.1508757600773e-206
3.4093082461306e-207
1.5341887107587e-206
1.1047751731984e-186
5.5238758659921e-187
2.0967489794e-186
9.8213558652101e-187
3.8122708716365e-187
1.7155218922364e-186
6.9314015847937e-188
3.1191307131571e-187
1.2602548335989e-188
5.6711467511948e-188
5.5448374257084e-188
0
1.2748314895501e-187
0
2.3178754355457e-188
1.0430439459956e-187
2.1439663104752e-188
1.0719831552376e-188
2.9748152825789e-188
1.4775818728032e-189
3.3786728145167e-188
0
3.2581726822537e-188
0
5.9239503313705e-189
2.6657776491167e-188
1.4354256584009e-189
6.4594154628038e-189
9.7934044851214e-190
0
7.1053770646175e-190
0
1.2918867390214e-190
5.8134903255961e-190
8.9253804127353e-191
0
1.6227964386792e-191
7.3025839740561e-191
8.2836938840148e-192
4.1418469420074e-192
1.50612616073e-192
6.7775677232848e-192
9.2880159326831e-193
0
5.3899199591719e-193
0
9.7998544712219e-194
4.4099345120497e-193
5.3853234927791e-194
0
9.7914972595986e-195
4.4061737668192e-194
5.1234440755242e-195
0
2.5646617342719e-195
0
4.6630213350409e-196
2.0983596007677e-195
2.2419513445039e-196
0
4.0762751718424e-197
1.8343238273198e-196
7.4114094035884e-198
3.3351342314709e-197
3.4343280177853e-198
0
6.2442327628816e-199
2.8099047413582e-198
2.7970160651632e-199
0
5.0854838215392e-200
2.2884676775928e-199
2.2077637719061e-200
0
4.0141221291743e-201
1.8063501729362e-200
1.4961499334238e-201
7.480749667119e-202
2.7202836796909e-202
1.2241207375579e-201
1.0010648287247e-202
5.0053241436234e-203
3.6185806443192e-203
1.8092903221596e-203
6.5926744399688e-204
2.9506104423053e-203
2.3415483045505e-204
1.1707741522752e-204
9.1625577397145e-205
0
3.1270741932472e-205
1.5635370966236e-205
1.172799401808e-205
0
3.3016593957605e-206
5.5049406657904e-206
1.2406946402543e-206
0
4.0476977391036e-207
2.4956075916434e-207
1.3234385143316e-207
6.6171925716578e-208
4.2624830841448e-208
2.1909727180277e-208
1.4941372958725e-208
0
5.1450741126978e-209
0
1.5938589484664e-209
7.9693336548803e-210
5.3280583538747e-210
0
1.6128706806164e-210
8.0643952408258e-211
5.2484083519169e-211
0
1.5555846014243e-211
7.7779230071215e-212
4.9393994791544e-212
0
1.5489182768253e-212
0
4.4588001068836e-213
2.229400085998e-213
1.3687761699075e-213
0
3.8742469819179e-214
1.937123490959e-214
1.1663673578145e-214
0
3.250406626141e-215
1.6252033131424e-215
8.9979388742517e-216
4.4989694371258e-216
2.6403900478303e-216
0
7.2085638256022e-217
3.6042819128012e-217
2.0817535278418e-217
0
5.6104190836816e-218
2.8052095418409e-218
1.582959899552e-218
0
4.3225056909118e-219
7.7204523097943e-220
1.1387832537013e-219
5.6939162685066e-220
2.9942000426329e-220
1.3913060859441e-220
5.2749340814325e-221
0
0
0
0
0
0
0
0
0
0
0
0
0
0
0
0
0
0
0
0
0
0
0
0
0
0
0
0
0
0
0
0
0
0
0
0
0
0
3.1658305584914e-148
1.5829152792457e-148
1.7353935991113e-144
8.6769679955565e-145
1.5776307491738e-144
1.5776311128444e-145
0
1.2318990803545e-138
1.1299104138061e-121
0
7.3987584501085e-122
1.7755770754154e-121
7.3987584503181e-122
-1.1000575529073e-131
9.6941914324607e-121
4.7786961482204e-121
1.546954950568e-121
8.4645658094436e-121
1.546954950568e-121
0
8.1976816404559e-121
0
2.6383585822929e-120
8.5688608993709e-121
1.0681706097741e-119
0
7.3114479948734e-121
9.9505612982537e-120
7.3114479948734e-121
0
1.0033643487962e-120
0
1.0843607132146e-120
0
1.0211685905377e-120
0
1.1500158818455e-121
-9.8304833144952e-121
7.985366019556e-122
0
2.3519815251256e-122
0
2.3519815251256e-122
0
4.4362332180526e-123
0
4.4350275209476e-123
0
8.6020297898253e-125
4.3490072230494e-123
6.2535400258634e-125
0
6.2220831601614e-125
0
1.1495004358613e-125
0
5.636760481586e-126
0
2.7467699880706e-126
0
1.1649319835079e-126
0
6.92439582869e-127
0
1.0259620533312e-127
0
3.6260751908235e-128
0
2.3240858848186e-128
0
1.2058822057249e-128
0
1.5394703520872e-129
1.0519351705162e-128
8.3760042513252e-130
0
2.6078533235832e-131
8.1152189189668e-130
2.6066931280012e-131
0
6.0344611798337e-133
2.5463485162029e-131
6.0306248551668e-133
0
3.2523552912102e-133
0
1.2227073866419e-134
3.130084552546e-133
1.0856719705656e-134
0
1.973949037392e-135
8.8827706682639e-135
2.5020553937163e-136
1.7237434980204e-135
1.3371637563055e-136
0
4.1632811717911e-138
1.2955309445876e-136
4.1613555954009e-138
0
7.5756163927393e-140
4.0855994314735e-138
4.8820696274028e-140
0
3.1425000127501e-140
0
3.6268276725995e-141
0
3.6250688354694e-141
0
6.5910342463082e-142
2.9659654108386e-141
2.105196625723e-143
6.3805145837359e-142
5.2786885273627e-144
0
5.2761007857484e-144
0
2.1202858816831e-145
5.0640721975801e-144
1.8645301142369e-145
0
2.3317174762339e-146
1.6313583666135e-145
1.2032384741407e-146
0
2.6954687344217e-148
1.1762837867965e-146
2.6936033474059e-148
0
1.2180417796531e-148
0
3.2919782202734e-149
0
1.765109512658e-149
0
3.9955860919662e-151
1.7251536517383e-149
3.9925342416292e-151
0
1.9107722518903e-151
0
2.3583502341781e-152
1.6749372284724e-151
1.1741245468185e-152
0
3.3463034549017e-154
1.1406615122694e-152
2.0199833230036e-154
0
6.8501503700327e-155
0
3.3927193854876e-155
0
2.0033476516828e-155
0
3.4640451966605e-156
1.6569431320167e-155
1.7316790547577e-156
0
0
0
0
0
0
0
0
0
0
0
0
0
0
0
0
0
0
0
0
0
0
0
0
0
0
0
0
0
0
0
0
0
0
0
0
-3.2840325056065e-86
-1.6420162528033e-86
-3.5304964687856e-85
-1.7652482343928e-85
-3.6169122270772e-84
-1.8084561135386e-84
-2.1380206290003e-83
-1.0690103145001e-83
-8.6507263227991e-83
-4.3253631613995e-83
-2.6957529563559e-82
-1.347876478178e-82
1.8935955369323e-69
8.9946332975775e-70
9.6267103334895e-71
1.7994145485689e-69
6.5189712921743e-71
3.3135304302676e-71
1.0901853879267e-71
5.4287858991152e-71
1.0956254263936e-72
9.806228452873e-72
3.2779795956546e-71
6.9547615325389e-71
4.3354344075786e-70
4.3467259578368e-70
3.9414069465023e-71
3.9412937129285e-70
8.7893943062005e-67
5.9347298410999e-67
7.0267694894878e-66
4.5237478213784e-66
2.302850197795e-64
1.3407741657013e-64
1.1043543256226e-63
7.1805483293436e-64
2.3688525358527e-60
0
4.3739344790456e-60
3.1861838222649e-60
5.0137254886968e-61
3.8726556325265e-60
1.8463952029961e-60
1.6234740177017e-60
9.3589371377772e-60
6.6212882518602e-60
5.8696369562173e-59
4.0125516421657e-59
2.8960315467175e-58
1.7557537517267e-58
1.1863055433782e-57
8.6915629219173e-58
3.2077178588011e-57
2.3498817920899e-57
1.3046289819426e-56
8.401938966676e-57
3.9381826611405e-56
2.912387716994e-56
1.1274132296839e-55
8.6964520264882e-56
2.4665680553402e-55
1.9249331357683e-55
6.4136955709473e-55
4.4689257039624e-55
1.5780684958048e-54
1.1323781622297e-54
3.319014545441e-54
2.6348764825357e-54
7.608272122434e-54
6.1527129730114e-54
1.4432075181795e-53
1.1726425259219e-53
2.9910013552826e-53
2.2741824533504e-53
4.6882136483538e-53
4.3287997390831e-53
5.4660077654855e-53
5.3174155818159e-53
5.915003748904e-53
5.914749445165e-53
5.7348027856912e-53
6.0996723593224e-53
5.7290083147014e-53
5.7277767999954e-53
4.9913207134463e-53
5.5699468648613e-53
4.0888561322159e-53
4.7324378030614e-53
3.2572638040018e-53
3.6985378684706e-53
2.0787093626623e-53
2.7459741372471e-53
1.0386113331704e-53
1.533898983569e-53
2.7870491844373e-54
6.4924298405459e-54
4.0848908472193e-55
1.5716285317769e-54
8.4943056912618e-56
2.3339318491721e-55
1.3745525102924e-56
6.7931490253385e-56
3.5529778522386e-57
9.0355844592265e-57
6.5998538916618e-58
2.7888363345534e-57
1.0840421742724e-58
5.3468606783426e-58
2.6097459451429e-59
7.2225613947294e-59
4.942972622635e-60
2.0059726506592e-59
1.2410227636717e-60
3.2265200519511e-60
2.2998186368877e-61
9.7366121750781e-61
3.7259299753516e-62
1.8689631716238e-61
9.6788508559681e-63
2.4460985655248e-62
1.8177888229081e-63
7.5825574234457e-63
3.4836609898695e-64
1.4365965839978e-63
6.5445401711653e-65
2.7476281155156e-64
1.094287486363e-65
5.2846983100208e-65
2.0367234946618e-66
8.5982350314362e-66
5.2070949188407e-67
1.3383609007264e-66
1.2176662411164e-67
3.3348201956335e-67
2.2138526515826e-68
9.8841899800051e-68
5.5855084211857e-69
1.4869691080115e-68
1.0416777371403e-69
4.396543871752e-69
1.7020311406611e-70
8.4800434470551e-70
4.4028197964615e-71
1.1257347411086e-70
1.0419631257978e-71
2.8517307781988e-71
1.5967241613001e-72
8.3492208208306e-72
3.23147885268e-73
1.2144143619277e-72
8.2062917930152e-74
2.134550544994e-73
2.0553707099824e-74
5.224844462475e-74
5.007881951099e-75
1.3372733620964e-74
1.1418436768021e-75
3.1972656236255e-75
1.89677069785e-76
8.9074682988052e-76
4.5151509905733e-77
1.2438245978354e-76
1.3057522017519e-77
2.7499055826644e-77
1.0487536646895e-77
0
0
0
0
0
0
0
0
0
0
0
0
0
0
0
0
0
0
6.8836926598818e-63
3.4670216953318e-63
5.448206182123e-61
2.8270963938096e-61
1.0654002173651e-59
5.6147155344502e-60
1.8478707873007e-58
9.8273857267983e-59
2.6410629031395e-57
1.4373671768193e-57
3.1737561090147e-56
1.7001476875606e-56
8.3607644524833e-55
4.6513185910952e-55
4.6319413167016e-54
2.6998447236344e-54
3.7153137008218e-53
2.1579181875671e-53
1.3068252460772e-52
1.1171321249213e-52
1.3748497777743e-52
1.4073776676579e-52
3.4996115489553e-53
6.6819117752305e-53
1.1891078618452e-53
2.3105036871101e-53
7.1003296796749e-51
3.421138828918e-51
1.2880920114466e-51
5.8122376742692e-51
2.3416251731763e-52
1.0539294941295e-51
4.2581348882045e-53
1.9158116843558e-52
7.7420998968644e-54
3.483924898518e-53
1.4076546808844e-54
6.33444521598e-54
2.5593721460696e-55
1.1517174662774e-54
4.6534390162246e-56
2.0940282444472e-55
7.4056750357035e-52
0
1.3464864718634e-52
6.0591885638401e-52
2.4481583405826e-53
1.1016706378053e-52
2.6903380842616e-51
0
1.2591039815799e-51
1.4312341026842e-51
5.6250029305861e-44
4.3047888824058e-44
4.1119476218106e-44
0
1.5245081014691e-45
3.959499323406e-44
1.5432727270884e-45
0
2.8059167828835e-46
1.2626810488001e-45
3.3903064015648e-47
2.6643417746277e-46
1.8094196283305e-48
0
1.8053575730401e-48
2.0310287590689e-51
4.2640433041555e-50
1.7627171439592e-48
8.5159319418996e-50
0
1.9895035290192e-50
8.9527568440117e-50
6.3867950940082e-51
1.4370252438917e-50
1.1614044025247e-51
5.2257145165663e-51
1.7016067279625e-50
0
1.4582735590653e-48
0
1.4549996946771e-48
1.6411438575738e-51
3.939828945406e-49
8.9551746468808e-49
2.3169181646398e-49
1.6232286795678e-49
3.114555698729e-48
0
3.1149452936803e-48
0
5.6640684546915e-49
2.5486564323659e-48
6.5598266855486e-49
0
1.1932826611038e-49
5.367786426766e-49
1.3536232072413e-49
0
6.1754318777297e-51
1.2929176933701e-49
6.2637313081418e-51
0
6.4864448326992e-51
0
1.2040096385746e-51
5.3268103347447e-51
1.2469323096096e-51
0
2.3022690448416e-52
1.02283710994e-51
4.2772816916206e-53
1.883866578221e-52
4.1398409952618e-53
0
7.2288915357468e-54
3.4220277061403e-53
6.5172285674403e-54
0
7.1245318073931e-55
5.8068978246967e-54
7.1286334639224e-55
0
2.0665439570125e-55
0
2.0663495331179e-55
0
1.576300082149e-55
0
2.6973708688833e-56
1.3065704597781e-55
4.9048901902775e-57
2.2068963012562e-56
1.3197347226591e-57
0
1.3194862686409e-57
0
4.3642571967314e-59
1.2758448216321e-57
4.3634313236654e-59
0
2.060780666963e-60
4.1573573451416e-59
2.0393186613743e-60
0
8.9600960204112e-61
0
4.7863131100378e-61
0
4.8518922107426e-61
0
8.7584501956473e-62
0
8.7507791022437e-62
0
1.6882744925011e-63
8.5819517209104e-62
1.2507483085087e-63
0
9.3997052244255e-64
0
3.8502127045319e-65
9.0146840187424e-64
3.5900341206108e-65
0
1.1435538022584e-65
0
4.6612362286811e-66
0
4.4105705782694e-66
0
6.8970010528547e-67
0
6.8631453793762e-67
0
9.9330839245601e-68
0
7.1485841509368e-68
0
0
0
0
0
0
0
0
0
0
0
0
0
0
0
0
1.8148397950045e-53
9.0849083768518e-54
1.9346519452267e-51
9.7586780579612e-52
1.0109182524102e-49
5.1436449838647e-50
3.4504655388609e-48
1.7721085258967e-48
8.6767172137134e-47
4.4999687090933e-47
1.71800655936e-45
9.0012167045579e-46
2.7812119369843e-44
1.473063236625e-44
3.7588100060308e-43
2.0143099908912e-43
4.3091222323278e-42
2.3376646837316e-42
4.2835172630172e-41
2.3507834189442e-41
3.8147473552985e-40
2.1130198635871e-40
3.1588714761636e-39
1.7607152853048e-39
2.5008869771845e-38
1.3998233029441e-38
1.9097449899526e-37
1.0732825995573e-37
1.3959220463239e-36
7.8883675412966e-37
9.6286643899312e-36
5.4827578088999e-36
6.186678071851e-35
3.5572434746003e-35
3.6707885730577e-34
2.1351329855597e-34
2.0020906733238e-33
1.1797636328293e-33
1.0020963746977e-32
5.989316612404e-33
4.6033761525383e-32
2.7933310898548e-32
1.9428007670674e-31
1.197890385089e-31
7.5439006706944e-31
4.7299725320617e-31
2.6994888603571e-30
1.7223825625013e-30
8.9167044529902e-30
5.7934456641112e-30
2.7232378763221e-29
1.8029773945236e-29
7.7029035459406e-29
5.200009454534e-29
2.0214701195392e-28
1.3922378449747e-28
4.9309415856778e-28
3.4665223319928e-28
1.1202588002961e-27
8.0423662435208e-28
2.3756700622393e-27
1.7421859518738e-27
4.713406280234e-27
3.531782018833e-27
8.7687777668419e-27
6.7150457614232e-27
1.5325188350074e-26
1.1998218671823e-26
2.5184315812071e-26
2.0172299718251e-26
3.8873655584935e-26
3.1907997059622e-26
5.6064183935668e-26
4.7342855025317e-26
7.434752185906e-26
6.5258727251947e-26
8.7603877204434e-26
8.1514523766752e-26
9.116218600452e-26
8.9666910109435e-26
9.1275402220635e-26
9.0594863830656e-26
8.8611938226404e-26
8.9100596505595e-26
8.1488926734953e-26
8.4190422859744e-26
6.8604308078775e-26
7.4122876094008e-26
5.1474162380029e-26
5.9174900039079e-26
3.3370552099047e-26
4.1651335997848e-26
1.8096480175976e-26
2.5098691549906e-26
7.993636311943e-27
1.2593556624889e-26
2.873821191915e-27
5.187270307952e-27
8.7981458974022e-28
1.7845768585364e-27
2.4849994241527e-28
5.4164599774632e-28
6.9368740845448e-29
1.5526642040822e-28
1.9721772778526e-29
4.4119748520237e-29
5.7265102620469e-30
1.2682022992274e-29
1.6899655773706e-30
3.7013083364554e-30
5.051094626531e-31
1.0953196757879e-30
1.526633632098e-31
3.2815084822468e-31
4.6583259891324e-32
9.9393057315661e-32
1.4308315829294e-32
3.0369883855441e-32
4.4052589858949e-33
9.3290492832203e-33
1.3533024550503e-33
2.8686372805652e-33
4.1323241527143e-34
8.7928472722954e-34
1.2511113763389e-34
2.6777271639001e-34
3.7516476467946e-35
8.0855330851639e-35
1.1140725930768e-35
2.4186952310121e-35
3.2772578574877e-36
7.167020746123e-36
9.5542881543436e-37
2.1042172761715e-36
2.7614810119471e-37
6.123327708696e-37
7.9156019105388e-38
1.7667538187142e-37
2.2509109531317e-38
5.0558493931977e-38
6.3518770433332e-39
1.4354168852677e-38
1.779325646359e-39
4.0445140511973e-39
4.9494569388621e-40
1.13135387197e-39
1.3675471864598e-40
3.1427596443539e-40
3.7543627938327e-41
8.6723250814604e-41
1.0243727637648e-41
2.3779111821242e-41
2.7785555985066e-42
6.4804941381482e-42
7.4941801229011e-43
1.7558311734349e-42
2.0103494059285e-43
4.7306704837186e-43
5.3648040375824e-44
1.2677247067907e-43
1.4244855173864e-44
3.3797199834852e-44
3.764140548814e-45
8.9655251572475e-45
9.9004323615392e-46
2.366958465502e-45
2.5923608909306e-46
6.2201566975847e-46
6.7586191396663e-47
1.6273437541396e-46
1.7547139961348e-47
4.2392778031443e-47
4.5373199472595e-48
1.0997741242688e-47
1.1687242284413e-48
2.8416268957403e-48
2.9981090860978e-49
7.3147960486359e-49
7.6837299223455e-50
1.8737670431421e-49
1.9161328653672e-50
4.8294085758774e-50
5.7783022120783e-51
1.1347782612391e-50
4.7325505692027e-51
0
0
0
0
0
0
0
0
0
0
0
0
1.6396868037321e-53
8.1821669082329e-54
2.599442198573e-51
1.2969367530355e-51
1.8376362314667e-49
9.2031081634219e-50
8.0768722310157e-48
4.069013595073e-48
2.5268910850059e-46
1.2823712592671e-46
6.0710634267036e-45
3.1065989569653e-45
1.1752971757499e-43
6.0687958146053e-44
1.8876920661593e-42
9.8442417884384e-43
2.5635988409122e-41
1.3513259758511e-41
2.9917632182038e-40
1.595249527609e-40
3.0383233973996e-39
1.6398476329565e-39
2.7155346447325e-38
1.4832888025702e-38
2.181477956039e-37
1.2034193629497e-37
1.6310209883931e-36
9.0531729469049e-37
1.1702826751132e-35
6.5173576597941e-36
8.1312970565643e-35
4.5432129323079e-35
5.4264560903206e-34
3.0480285281443e-34
3.4362623364389e-33
1.9448527509402e-33
2.0429056248242e-32
1.1673897475083e-32
1.1306119628442e-31
6.5351402091807e-32
5.7886212050077e-31
3.3904154158197e-31
2.7306921698609e-30
1.6232275519043e-30
1.1842188030732e-29
7.1544057939977e-30
4.7168295779874e-29
2.8996861347794e-29
1.7254831864161e-28
1.0805046533095e-28
5.80043891833e-28
3.7033084871696e-28
1.7937236128246e-27
1.1685265488061e-27
5.1103952993945e-27
3.3991043135927e-27
1.3441732896394e-26
9.1322258972194e-27
3.2729069693267e-26
2.2716454462863e-26
7.4019875548507e-26
5.2480469491997e-26
1.5608400241073e-25
1.1301053334242e-25
3.0805784916292e-25
2.2769815355282e-25
5.7094285771376e-25
4.3076056116598e-25
9.9583225528598e-25
7.6717216989667e-25
1.6357669311654e-24
1.2880138082658e-24
2.5273187439657e-24
2.0378606654281e-24
3.6552549811693e-24
3.029907464304e-24
4.8778058430533e-24
4.1965500712124e-24
5.8138039213134e-24
5.2909582947462e-24
6.1083330214947e-24
5.8917648649884e-24
6.1211178715562e-24
5.9826223058239e-24
5.9777837427205e-24
5.9046682642961e-24
5.5473103181786e-24
5.619198763548e-24
4.7343203691029e-24
5.0036905230153e-24
3.6193674252484e-24
4.05869344445e-24
2.4064210767852e-24
2.9184978873028e-24
1.3498496827356e-24
1.8093658974495e-24
6.2267321183363e-25
9.4197968324249e-25
2.3533709280084e-25
4.0574958568795e-25
7.5625030943492e-26
1.4643296732756e-25
2.220708317255e-26
4.6424154692e-26
6.3809304783512e-27
1.3782320202044e-26
1.8584220944736e-27
4.0280502842065e-27
5.5280328068178e-28
1.1875720941153e-27
1.6751646714456e-28
3.5567060097451e-28
5.1557394901435e-29
1.0823515050397e-28
1.6083183520497e-29
3.3426079045332e-29
5.0717908020108e-30
1.0456189751385e-29
1.6100023189856e-30
3.3024898699522e-30
5.1165848840407e-31
1.0482262308874e-30
1.6188413325592e-31
3.3254258754275e-31
5.07681191288e-32
1.0491193806651e-31
1.574079189247e-32
3.2793005484288e-32
4.8211097244349e-33
1.0135473644922e-32
1.4590894824592e-33
3.0957396411962e-33
4.3668192771011e-34
9.3470467712458e-34
1.2934250958862e-34
2.7916237983999e-34
3.7939497639671e-35
8.2528653807606e-35
1.1026521720293e-35
2.4164098553419e-35
3.1766774476067e-36
7.0108148518525e-36
9.0755938359028e-37
2.0164640865445e-36
2.5722871598185e-37
5.7519904427356e-37
7.2356123784921e-38
1.6278936921385e-37
2.0207016400694e-38
4.5727822742378e-38
5.6046518840018e-39
1.2753751378898e-38
1.5443723568812e-39
3.5330012287217e-39
4.2290180504774e-40
9.7237314395566e-40
1.1511432291262e-40
2.6596876295703e-40
3.1155271339814e-41
7.231913588715e-41
8.3858814781555e-42
1.9552810543898e-41
2.2453124502963e-42
5.2577473448543e-42
5.9814347794097e-43
1.4064338594286e-42
1.5856904068133e-43
3.7433152240203e-43
4.1840276170555e-44
9.9150239790465e-44
1.099025177882e-44
2.6140210546975e-44
2.8742687909506e-45
6.8608065622748e-45
7.4854366289534e-46
1.7929223616076e-45
1.9415835798216e-46
4.6657914076955e-46
5.0147572285373e-47
1.2094590621606e-46
1.2938346840231e-47
3.1193448826812e-47
3.2471429708068e-48
8.0943273343099e-48
9.8652779492507e-49
1.9128757680974e-48
8.0548425983298e-49
0
0
0
0
0
0
0
0
0
0
7.4326499721993e-54
3.6907919116278e-54
1.5971126477514e-51
7.9049626967915e-52
1.465506555416e-49
7.2531797983118e-50
8.0439780455191e-48
3.9911619441742e-48
3.0660150030666e-46
1.527882198966e-46
8.8063237713308e-45
4.4138022099541e-45
2.0082102482254e-43
1.0134567175142e-43
3.7687870466837e-42
1.9168743130758e-42
5.9553186237195e-41
3.0556408247563e-41
8.0587797472208e-40
4.1751251174508e-40
9.4669754752843e-39
4.9569599185831e-39
9.7403820768084e-38
5.1589578568509e-38
8.8531575079016e-37
4.7462029966215e-37
7.1836801801043e-36
3.8988569173291e-36
5.2565108048035e-35
2.8833850310596e-35
3.5782121402815e-34
1.9736743246008e-34
2.3754246277131e-33
1.3106689929526e-33
1.5661816936649e-32
8.6462799493848e-33
9.9919773564722e-32
5.5532977135991e-32
6.0035759531593e-31
3.3791605261316e-31
3.3670037506198e-30
1.9234254114408e-30
1.7589910441642e-29
1.0201655999343e-29
8.535967404028e-29
5.0282867088399e-29
3.8314933568265e-28
2.294552688385e-28
1.5835897834577e-27
9.6536117724104e-28
6.0026013224543e-27
3.7302460323684e-27
2.0800227126609e-26
1.3197416755056e-26
6.5736071451759e-26
4.2650969847689e-26
1.8920014564498e-25
1.257188999738e-25
4.9579058920042e-25
3.3781403855669e-25
1.1844436225709e-24
8.2817168162068e-25
2.5891605422143e-24
1.8575148678188e-24
5.2137716213955e-24
3.8324431369825e-24
9.7683464778154e-24
7.3359949599536e-24
1.7234083758903e-23
1.3173004404188e-23
2.8957069480776e-23
2.2446361903581e-23
4.6659704025373e-23
3.6612596188575e-23
7.2090747275124e-23
5.7334666516273e-23
1.0591449336288e-22
8.5830085302974e-23
1.4529317094735e-22
1.2131326391533e-22
1.7981515923903e-22
1.5791639637685e-22
1.9471564312425e-22
1.8240048600763e-22
1.9587341368127e-22
1.8830355286707e-22
1.9297938653145e-22
1.8680099655992e-22
1.8149929160611e-22
1.7967620288504e-22
1.5768965691837e-22
1.6250130714568e-22
1.2323932141724e-22
1.3443516983943e-22
8.4160819409909e-23
9.9003217774902e-23
4.8798664299322e-23
6.3187130046558e-23
2.3443006590737e-23
3.4084013186723e-23
9.2806145824064e-24
1.5308527185587e-23
3.1229458729667e-24
5.7787445454816e-24
9.5354648392986e-25
1.9112027063179e-24
2.825159532215e-25
5.8799089150118e-25
8.4455139206595e-26
1.7702752590743e-25
2.5776936655555e-26
5.362204851134e-26
8.0313049207496e-27
1.6504547553543e-26
2.5483920592929e-27
5.1718418747306e-27
8.214863686682e-28
1.6485792074007e-27
2.6804840280576e-28
5.3328938861538e-28
8.8046095129834e-29
1.7432710435783e-28
2.8916195801152e-29
5.7244280012927e-29
9.4327729553368e-30
1.8757806847105e-29
3.0411307713633e-30
6.097376893341e-30
9.663932219233e-31
1.958021863951e-30
3.0250520404471e-31
6.1990202609801e-31
9.3345433016641e-32
1.9343328752317e-31
2.8430225771566e-32
5.953325850155e-32
8.5570420028284e-33
1.8091904685978e-32
2.5476697215151e-33
5.4345429399599e-33
7.5085412069881e-34
1.6150013186311e-33
2.1918673944356e-34
4.7513295657508e-34
6.3407720722169e-35
1.3846563646538e-34
1.8186435509184e-35
3.9992489899693e-35
5.1740171588965e-36
1.1453364662431e-35
1.4607217190613e-36
3.2538753782025e-36
4.0938948922191e-37
9.1740885087882e-37
1.1394400057054e-37
2.5679455802421e-37
3.1504659342877e-38
7.1387566357925e-38
8.6560192251439e-39
1.9715770584435e-38
2.3639772609266e-39
5.4111413980974e-39
6.4189312891919e-40
1.4762766121602e-39
1.7333298463169e-40
4.0046208503916e-40
4.6558204238206e-41
1.0803714642427e-40
1.2442241296038e-41
2.8993387177447e-41
3.3088212210871e-42
7.7415622282193e-42
8.7578940495089e-43
2.0570548009932e-42
2.307557259797e-43
5.4403777547152e-43
6.0534034116886e-44
1.4323613968623e-43
1.5813374478378e-44
3.7547258654061e-44
4.1127793808103e-45
9.8024650560991e-45
1.0683821854766e-45
2.5458072525361e-45
2.6988065578684e-46
6.6518525862578e-46
8.26206929011e-47
1.5811611387981e-46
6.7242714611287e-47
0
0
0
0
0
0
0
0
0
0
4.0494682092982e-52
1.9754253282085e-52
6.2049049756997e-50
3.0282540979582e-50
4.5719910211327e-48
2.2350075240153e-48
2.1642285304305e-46
1.0610608532921e-46
7.4359371782803e-45
3.660330958744e-45
1.9843004941271e-43
9.8168658765256e-44
4.295495356138e-42
2.1376703074891e-42
7.7761337769434e-41
3.8960776975489e-41
1.2005970799363e-39
6.0615506443357e-40
1.6057854178024e-38
8.1769790970191e-39
1.8817968279616e-37
9.6747221102348e-38
1.9450966505513e-36
1.0105535810442e-36
1.7899668997595e-35
9.4065702699175e-36
1.472656089778e-34
7.8349384870703e-35
1.0876736483891e-33
5.8613693857045e-34
7.2928114407618e-33
3.9729311850496e-33
4.5844443402947e-32
2.5068634785414e-32
2.8547371487573e-31
1.5516361645979e-31
1.896496797698e-30
1.0218867437804e-30
1.3415733406193e-29
7.2404605192461e-30
9.3673865160704e-29
5.129784731607e-29
6.0716655917441e-28
3.3956511258196e-28
3.557888242191e-27
2.0348303897351e-27
1.8689827393063e-26
1.0932068206501e-26
8.7762115248164e-26
5.2521799673507e-26
3.6790200797426e-25
2.2546337026301e-25
1.3765051322916e-24
8.6486209103526e-25
4.5981124659344e-24
2.9664135632446e-24
1.3706199924641e-23
9.0983349189456e-24
3.6357679859436e-23
2.4908243248424e-23
8.5349233462723e-23
6.0596664706473e-23
1.7600162594049e-22
1.3014402820412e-22
3.1711736079376e-22
2.4522221334452e-22
5.0173514024347e-22
4.0544208798384e-22
7.1396338661364e-22
5.9729871278136e-22
9.5098603715526e-22
8.1049529382395e-22
1.2352034809155e-21
1.0554564020024e-21
1.6108545120526e-21
1.3648345302757e-21
2.1275798764623e-21
1.7831426263505e-21
2.7982538324962e-21
2.3419107102427e-21
3.5066409774178e-21
3.0025870546973e-21
3.9395217434514e-21
3.5642950443027e-21
4.0048080059261e-21
3.7763981995812e-21
3.9827520392951e-21
3.7725785307212e-21
3.7982437428076e-21
3.6686588506243e-21
3.3699066147241e-21
3.3776078118314e-21
2.6976830002044e-21
2.8561662561847e-21
1.894404642768e-21
2.1578379619453e-21
1.1346991739004e-21
1.4183118426226e-21
5.6625735116684e-22
7.9161284021005e-22
2.3398794509317e-22
3.6971710862603e-22
8.2246799526668e-23
1.4556300652539e-22
2.6111668361961e-23
5.0153565244822e-23
7.9920914121876e-24
1.6000368807105e-23
2.4582095498066e-24
4.9717814715442e-24
7.7154523978486e-25
1.5506201538092e-24
2.4762639993592e-25
4.9151819949018e-25
8.1140493920142e-26
1.5889735940092e-25
2.7069325032447e-26
5.2368437064927e-26
9.1520253056946e-27
1.7545526756118e-26
3.1146325305215e-27
5.9446045790887e-27
1.0583955222541e-27
2.0221649208918e-27
3.5640005176038e-28
6.8527571348279e-28
1.1826089030925e-28
2.2978861345836e-28
3.855676245524e-29
7.5894380502041e-29
1.2345973515617e-29
2.463732332619e-29
3.8869735147551e-30
7.860507128482e-30
1.2053728543795e-30
2.4676084759355e-30
3.687987117961e-31
7.633948522017e-31
1.1148061879535e-31
2.3308426574157e-31
3.3325966245428e-32
7.0321911371557e-32
9.859761407901e-33
2.0983939795716e-32
2.8888185429073e-33
6.1975947254723e-33
8.3866002946768e-34
1.8128868695061e-33
2.4137250416963e-34
5.2549978559525e-34
6.8902407561722e-35
1.5102597972198e-34
1.9517200783458e-35
4.3053978631925e-35
5.4879732609249e-36
1.2179943975713e-35
1.532416349579e-36
3.4207308283739e-36
4.2506666961748e-37
9.5409197627863e-37
1.1716179502664e-37
2.6436389162228e-37
3.2098628802527e-38
7.279236163016e-38
8.743232978255e-39
1.9923347766499e-38
2.3683619863e-39
5.4218021130853e-39
6.3813487347265e-40
1.4673501017757e-39
1.7106313420137e-40
3.9502916013377e-40
4.5631525279604e-41
1.0580833756426e-40
1.211484816069e-41
2.8202647175525e-41
3.2017535999668e-42
7.4820149539781e-42
8.4248589045152e-43
1.9759327788896e-42
2.2067476455874e-43
5.1961900230946e-43
5.7725471591503e-44
1.359113736428e-43
1.4678804856644e-44
3.576322300911e-44
4.528938418752e-45
8.5513819290632e-45
3.6738744044823e-45
0
0
0
0
0
0
0
0
8.7017382822143e-64
2.1793563770313e-64
1.063745878155e-50
5.0903972183356e-51
1.4204973966235e-48
6.8164983573049e-49
9.358532400959e-47
4.5054608952509e-47
4.0488468245299e-45
1.9567006830726e-45
1.2937563450787e-43
6.2800205034389e-44
3.2567267398093e-42
1.5887467190654e-42
6.7294469124276e-41
3.3010816412711e-41
1.1746331702199e-39
5.7974824593228e-40
1.7652284265446e-38
8.7718098192432e-39
2.3190431370707e-37
1.161114255044e-37
2.6911568158361e-36
1.3589259267697e-36
2.774992073018e-35
1.4144667130265e-35
2.5665615439592e-34
1.3220295903898e-34
2.1294400630044e-33
1.109493085927e-33
1.5961649771813e-32
8.4195172698008e-33
1.0835383415682e-31
5.7990921184394e-32
6.60444016912e-31
3.569974047926e-31
3.9028776880815e-30
2.0977571824956e-30
2.5356135244551e-29
1.3354752805228e-29
1.9373196992915e-28
1.0042084144856e-28
1.6492709470322e-27
8.5716294617411e-28
1.3953338156781e-26
7.3718923587396e-27
1.0651353598436e-25
5.7630287634139e-26
7.0523419702702e-25
3.9174840573762e-25
4.0193965819546e-24
2.2933799469853e-24
1.9720467107987e-23
1.1568791214769e-23
8.3401381887185e-23
5.0395430231645e-23
3.0450191570397e-22
1.8998792373209e-22
9.6083911664134e-22
6.2088739513383e-22
2.6199225149825e-21
1.7598991936747e-21
6.1583928346971e-21
4.321592655507e-21
1.2396379375566e-20
9.15224255257e-21
2.108011600491e-20
1.6563567829481e-20
2.960408002995e-20
2.5155276813485e-20
3.4040459671424e-20
3.1566376948621e-20
3.5027722212249e-20
3.3500422410088e-20
3.5511380694847e-20
3.3971431971214e-20
3.6425850984843e-20
3.4475117526848e-20
3.870337008643e-20
3.572975273068e-20
4.3216475869549e-20
3.860754293696e-20
5.0029087941939e-20
4.3705417869628e-20
5.6658079573063e-20
5.006421939714e-20
5.8811256737512e-20
5.4150596134285e-20
5.8869394434631e-20
5.4627283509149e-20
5.6895359738362e-20
5.3618339418439e-20
5.1618640746052e-20
5.0252023513766e-20
4.2372462082499e-20
4.3467314078315e-20
3.0613264937606e-20
3.3711613036003e-20
1.8929486589599e-20
2.2817057436937e-20
9.7963606894921e-21
1.316368330699e-20
4.2167410963828e-21
6.3824701387027e-21
1.5466782712253e-21
2.6172509456244e-21
5.1101891718338e-22
9.3933271925279e-22
1.619511262088e-22
3.1118287329423e-22
5.1389227346365e-23
1.000235641719e-22
1.6626953465575e-23
3.2200814228478e-23
5.5087715148227e-24
1.0536535702484e-23