/*--------------------------------*- C++ -*----------------------------------*\
  =========                 |
  \\      /  F ield         | OpenFOAM: The Open Source CFD Toolbox
   \\    /   O peration     | Website:  https://openfoam.org
    \\  /    A nd           | Version:  7
     \\/     M anipulation  |
\*---------------------------------------------------------------------------*/
FoamFile
{
    version     2.0;
    format      ascii;
    class       volScalarField;
    location    "2.4";
    object      alpha.water;
}
// * * * * * * * * * * * * * * * * * * * * * * * * * * * * * * * * * * * * * //

dimensions      [0 0 0 0 0 0 0];

internalField   nonuniform List<scalar> 
6000
(
0
0
0
0
0
0
0
0
0
0
0
0
0
0
0
0
0
0
0
0
0
0
0
0
0
0
0
0
0
0
0
0
0
0
0
0
0
0
0
0
0
0
0
0
0
0
0
0
0
0
0
0
0
0
0
0
0
0
0
0
0
0
0
0
0
0
0
0
0
0
0
0
0
0
0
0
0
0
0
0
0
0
0
0
0
0
0
0
0
0
0
0
0
0
0
0
0
0
0
0
0
0
0
0
0
0
0
0
0
0
0
0
0
0
0
0
0
0
0
8.521019950738e-204
1.2337250625354e-203
1.985984594755e-203
1.4358107454784e-205
0
2.2095503463968e-184
4.2266174103896e-184
2.3460856736735e-218
4.6334856584753e-285
5.2702048428086e-220
1.2475884207844e-185
2.8683708514878e-185
-6.5321008831514e-202
4.2879326209503e-186
6.6194552921624e-186
7.6020138326627e-186
7.3308885350709e-186
1.1282464849155e-275
2.4594433839009e-225
2.2035160091523e-187
1.5987098395389e-187
8.6962393097441e-225
2.0082105928654e-188
8.2746943344829e-241
1.656738776803e-189
7.9737559608782e-206
2.0898035848537e-190
1.2127319908137e-190
5.85572703377e-206
1.2116977858753e-191
4.0803204331058e-206
1.152774916993e-192
5.7704889021118e-193
3.3123402752563e-206
5.0443905251338e-194
4.634100802048e-206
7.1900195561236e-206
7.7272380400169e-196
9.6923237258934e-206
6.2932861466171e-197
2.1049892212368e-205
4.9674684867887e-198
2.3925961054853e-204
2.9922998668476e-199
3.4591515120344e-205
2.0021296574494e-200
7.2371612886383e-201
8.0465278403484e-204
4.683096609101e-202
2.0615754914358e-202
6.2541483864943e-203
2.6387986540679e-203
4.676263307566e-204
2.7915629405723e-204
7.8595161171614e-205
2.6468770286631e-205
8.495100580312e-206
3.361808915713e-206
1.157641675357e-206
3.1877159513054e-207
1.1988131296218e-207
3.2257392693456e-208
1.1808918791813e-208
3.1111692028486e-209
1.1113648828097e-209
3.4850661228568e-210
8.9176001974891e-211
3.0797463822919e-211
7.7484939638359e-212
2.6243265550827e-212
6.500813252246e-213
1.7995877748503e-213
5.9408776076183e-214
1.4417127651204e-214
4.683945437644e-215
1.1220838167363e-215
3.5616597739919e-216
9.3396151890617e-217
2.2775665074026e-217
6.0412970529519e-218
2.109973632573e-218
0
0
0
0
0
0
0
0
0
0
0
0
0
0
0
0
0
0
0
6.3316611169828e-146
3.4707871982226e-142
1.8183528534673e-149
6.159496032825e-136
2.3595188053009e-119
9.2102119694778e-120
4.452264308907e-130
1.9494494109274e-118
4.6663117693349e-120
0
9.8157091825823e-119
3.1435071743749e-118
2.449421103054e-117
-1.5012885085584e-221
-1.5356895374291e-236
1.8132208316746e-118
2.27116917409e-118
2.3492292492326e-118
1.1572038388633e-118
1.0366499844842e-119
2.3118487000401e-119
0
6.8581686232813e-120
4.3846664993257e-124
0
8.0797129794309e-123
2.7247613235771e-123
1.4976537037563e-122
1.6189464316217e-123
7.7888283078488e-124
4.0789669629762e-124
1.1490513254643e-124
1.3503902443385e-124
1.3903337552118e-125
2.6503477301904e-126
2.3133762519376e-126
-4.0041661903663e-144
1.4225853955143e-127
-2.0981830837519e-144
2.3515462539529e-132
0
7.7756184570322e-134
5.4973468610296e-131
0
2.7135174156601e-133
0
0
2.2488411218885e-134
0
3.7173595641313e-139
0
5.0989155639071e-138
3.3069189952406e-138
5.0538019377721e-138
3.1976247719057e-142
0
0
2.7750766008432e-141
4.6400694777348e-145
0
4.5888043810317e-144
0
1.9834764104788e-144
-2.9118139618255e-161
3.2791406230092e-149
2.5488191419019e-146
1.511866453142e-146
2.4590577862839e-147
-5.5175536097144e-164
5.5109580729887e-152
3.3772437515718e-149
0
1.8939577519086e-150
-2.7769221895461e-167
2.6108029608859e-152
2.2908518894494e-152
8.128497772592e-153
3.782765398094e-153
0
3.8194503988999e-154
3.354176064223e-154
0
0
0
0
0
0
0
0
0
0
0
0
0
0
0
0
0
-6.568065011213e-84
-7.0609929375712e-83
-7.2338244541544e-82
-4.2760412580006e-81
-1.7301452645598e-80
-5.3915059127119e-80
3.8235989355708e-67
3.2137648590087e-69
2.6566413326519e-70
-9.8508049646269e-78
-5.026911708465e-86
3.3994504058695e-69
7.5897456785845e-68
0
8.55210263024e-65
6.7622663444446e-64
2.4392501083628e-62
1.1002579907657e-61
4.9467324872809e-58
1.1457180281291e-57
-2.3131371722865e-62
2.3274934778242e-58
1.0389955673824e-57
6.2155972602133e-57
3.2910083421076e-56
1.4068144604703e-55
3.8419500962491e-55
1.5821812385328e-54
4.7612466772681e-54
1.4443010147612e-53
3.2271353362165e-53
8.4415916821629e-53
2.1391187418465e-52
4.4359781289633e-52
1.0381667513821e-51
2.0015625541634e-51
4.3077287753123e-51
7.6570766212649e-51
9.4109277008312e-51
1.133445396944e-50
1.0695896435991e-50
1.0892946455075e-50
9.864274247446e-51
8.3936978149248e-51
7.0321343197533e-51
4.8836930068528e-51
2.903024313346e-51
1.041399401517e-51
1.5145808383233e-52
2.1230719602131e-53
1.3284684209811e-54
6.0724372006694e-55
5.2851278903652e-56
8.5193323034121e-57
5.1737170225259e-57
6.6278429699243e-58
2.5049212914901e-58
1.9286214549165e-59
3.0032950838685e-60
1.5912923089589e-60
1.4258294256149e-61
1.6940264931696e-62
4.2690579951433e-63
8.5371790091655e-64
1.5871860371554e-64
9.163319171138e-65
3.2351217737317e-65
2.8376164329428e-66
1.2751880386902e-66
9.2760331792957e-68
1.3806992307501e-68
7.7417561411855e-69
2.822987722972e-69
2.1761755279289e-70
2.8089507657532e-71
1.4684775700919e-71
4.9336347419317e-72
1.2692271467467e-72
3.5728025630251e-73
2.4787435118194e-74
9.4749926839962e-75
2.2605441993405e-75
1.2228827519432e-75
0
0
0
0
0
0
0
0
0
6.5773318087551e-61
5.2882736417985e-59
1.0515046060002e-57
1.8481039625042e-56
2.6680289641194e-55
3.167385901313e-54
8.7264409957871e-53
4.9532985740169e-52
4.051697869034e-51
2.0836139466739e-50
2.6464283038421e-50
4.2671633392512e-51
0
1.4224394610243e-48
-6.1081457811043e-57
-1.0269360439885e-60
-7.6099225579994e-65
-4.0584379686653e-68
-5.9347298304542e-68
3.7092061506875e-69
4.8219679958937e-68
1.6662770370838e-49
9.4177588571725e-65
5.06113760849e-64
6.0532607785742e-49
1.2342081407181e-61
1.7786810693539e-41
8.0375781159716e-42
-1.2723605692252e-48
4.6055302437034e-44
1.1398285043287e-57
4.6766932159264e-57
1.6046822194337e-45
1.0155153605427e-49
4.214494415399e-55
4.8805271663704e-48
5.2253567879519e-54
7.1851844796891e-49
3.5073927324514e-53
3.5533571892302e-48
2.1278193042262e-45
8.2486669808459e-50
4.4637441631912e-47
2.1629309125292e-51
4.5614285536363e-45
3.7738115189256e-49
1.001219656817e-50
1.4759755878254e-46
1.1440200194378e-50
2.8267185794844e-47
1.0339194488677e-50
8.9578169931729e-51
1.560241881702e-48
5.2399092839694e-51
2.8091592480148e-49
8.1882648832079e-52
2.4309062784251e-52
9.3175586112481e-51
8.1524170525173e-54
1.3442701064852e-51
3.3208493145831e-55
6.2079842625421e-56
3.8774647645452e-52
2.7910277629419e-56
3.0927800164385e-53
1.1606095554523e-58
2.1693282935477e-59
1.929071468879e-54
1.3518665612214e-58
1.6172977809446e-61
4.5025546438648e-60
6.1384375050834e-63
2.7832637060794e-59
5.1175570933885e-58
1.7504636917307e-58
3.7622572837591e-61
1.4374216555712e-58
1.8038964452232e-62
9.8609816138959e-68
1.5315101046845e-61
1.0557839638382e-61
1.0290460693898e-69
9.060290695424e-64
8.2799016932664e-63
2.1234546369948e-63
8.8178133762909e-65
1.0916246357059e-63
6.6574814058032e-67
1.7255796268905e-64
7.0819871696509e-66
1.9929440173287e-65
0
0
0
0
0
0
0
1.7178646481756e-51
1.846971913984e-49
9.7373380572283e-48
3.3543508453913e-46
8.515354789623e-45
1.7026932705168e-43
2.7853636125135e-42
3.8071370025493e-41
4.4163114689344e-40
4.4394695303277e-39
3.9899404131586e-38
3.3253434644148e-37
2.6449131212453e-36
2.0289584343054e-35
1.491893749622e-34
1.0372709390962e-33
6.7313447501521e-33
4.040863147885e-32
2.2330146853656e-31
1.1337825822473e-30
5.2888141195894e-30
2.2687015336176e-29
8.9617502726482e-29
3.265064733848e-28
1.0989614533775e-27
3.4227350651096e-27
9.880410236384e-27
2.6479879040524e-26
6.6002847276843e-26
1.5329940844326e-25
3.3246518736828e-25
6.7473405315941e-25
1.2842643457852e-24
2.2970043688332e-24
3.8655747104011e-24
6.1200660694982e-24
9.089157765182e-24
1.2544904225101e-23
1.5706125293344e-23
1.7294509451699e-23
1.738354139691e-23
1.7083368797907e-23
1.6139781085409e-23
1.4211766003766e-23
1.1327501417229e-23
7.9378137633471e-24
4.7365612680547e-24
2.3287015295572e-24
9.225800309896e-25
2.9792325849348e-25
8.3580275447313e-26
2.2400424750044e-26
6.1435215303496e-27
1.753391702379e-27
5.152767927365e-28
1.5413362536133e-28
4.6674850202758e-29
1.4274914740131e-29
4.3973367392244e-30
1.3586708449868e-30
4.1898171012805e-31
1.2838019418846e-31
3.8968421073881e-32
1.1701792319453e-32
3.4760704896964e-33
1.0220635172205e-33
2.9766802490009e-34
8.5922477325796e-35
2.4591718623835e-35
6.9811845672465e-36
1.9663954086785e-36
5.4974480046838e-37
1.5259783004384e-37
4.2070357949201e-38
1.1523373133316e-38
3.1367787148248e-39
8.4879996805195e-40
2.2837715065852e-40
6.1112137102935e-41
1.6267663077784e-41
4.3085898785633e-42
1.1356416243683e-42
2.9793555124939e-43
7.7813009030883e-44
2.0234877014335e-44
5.2400180176755e-45
1.3514885479594e-45
3.4720255088212e-46
8.8885198247979e-47
2.261869612927e-47
5.8540522769994e-48
1.2562071495485e-48
6.2753964601185e-49
0
0
0
0
0
0
1.5497358698743e-51
2.4718237476046e-49
1.7601681949685e-47
7.7982672524222e-46
2.4604984076023e-44
5.9641565901971e-43
1.1653662227273e-41
1.8902865994185e-40
2.5941467100677e-39
3.0610753060884e-38
3.1450963453482e-37
2.8437630248369e-36
2.3072193482398e-35
1.7369747706564e-34
1.2521541419856e-33
8.7399942510451e-33
5.8674104178471e-32
3.7444061850756e-31
2.2475637549038e-30
1.2581091594897e-29
6.5260006897192e-29
3.1237720758243e-28
1.3765259840183e-27
5.5784565422849e-27
2.0788126651233e-26
7.1269236600264e-26
2.2500319779036e-25
6.5505275036996e-25
1.7618812354814e-24
4.3888535553208e-24
1.0156143324651e-23
2.1910759132038e-23
4.4233782535157e-23
8.3845416842569e-23
1.4959239368197e-22
2.5152116275164e-22
3.9838722363131e-22
5.9280853423256e-22
8.2179690520619e-22
1.0378600993617e-21
1.1566935050566e-21
1.1686333852172e-21
1.1521044458276e-21
1.0956972008412e-21
9.7598136914947e-22
7.9032764377894e-22
5.6594003412235e-22
3.4771066533486e-22
1.7774747528917e-22
7.3981409915036e-23
2.5251426635523e-23
7.4571067480244e-24
2.0765332225133e-24
5.8469354846297e-25
1.7060784149229e-25
5.1346201386073e-26
1.5785970948434e-26
4.9287978903592e-27
1.5572264218707e-27
4.9578623167737e-28
1.5817979922058e-28
5.0266818461916e-29
1.582862397437e-29
4.9229387602428e-30
1.5104848891831e-30
4.5738191963202e-31
1.3683167928248e-31
4.0489324982908e-32
1.1861328698111e-32
3.4422443581132e-33
9.9008654303876e-34
2.8236461689531e-34
7.9878732954498e-35
2.2423918957401e-35
6.249130608368e-36
1.7294665582078e-36
4.7548110042005e-37
1.2990179540363e-37
3.5276050132776e-38
9.5244727351576e-39
2.5574290117368e-39
6.8307157236517e-40
1.8151837315835e-40
4.8001243816484e-41
1.2634038049485e-41
3.310281525089e-42
8.6355738805182e-43
2.2433092164511e-43
5.8037203359951e-44
1.4960020366124e-44
3.832525986527e-45
9.984440123368e-46
2.1565021311298e-46
1.0848197778965e-46
0
0
0
0
0
7.018964512683e-52
1.5150459212637e-49
1.3983868614874e-47
7.7278624394952e-46
2.9675221138972e-44
8.5914593736817e-43
1.9756600109532e-41
3.7404789356471e-40
5.9659402866338e-39
8.1530398898566e-38
9.6783931375949e-37
1.0069288789252e-35
9.2587320632579e-35
7.6024649350244e-34
5.6230413842474e-33
3.8535165658128e-32
2.5645791601998e-31
1.6952217648381e-30
1.0880831617208e-29
6.5967405481437e-29
3.7386415222758e-28
1.9758718331266e-27
9.7132583024562e-27
4.4241732437528e-26
1.8590136429532e-25
7.1783488326824e-25
2.5391539052227e-24
8.2082804628193e-24
2.4213340469375e-23
6.5143804997026e-23
1.5998295918047e-22
3.5963912671726e-22
7.4408237695037e-22
1.4290629935379e-21
2.5761101062615e-21
4.4088870518053e-21
7.2251073666845e-21
1.1365719947647e-20
1.7078891874282e-20
2.4204464364271e-20
3.1571956795485e-20
3.6510872134571e-20
3.7523644413014e-20
3.7150108583715e-20
3.5664836687649e-20
3.2282518798173e-20
2.6656333078841e-20
1.9553978123442e-20
1.2375672167042e-20
6.5660382068804e-21
2.8601513294568e-21
1.0273782743306e-21
3.1864273962814e-22
9.2285765074579e-23
2.6752700525791e-23
8.0012794859714e-24
2.4704128159468e-24
7.8154908311718e-25
2.5185419319433e-25
8.2285735487156e-26
2.7106307761372e-26
8.94063503156e-27
2.9314150161785e-27
9.4977054801938e-28
3.029981607357e-28
9.5076653705453e-29
2.93664178387e-29
8.9427692463872e-30
2.68939601345e-30
7.9976174506054e-31
2.3538522824471e-31
6.860987056912e-32
1.9815590304348e-32
5.6734571637799e-33
1.6110517425312e-33
4.5392463843153e-34
1.2695473925668e-34
3.5258845838635e-35
9.7272439826186e-36
2.6665508036885e-36
7.2656288552666e-37
1.9682281415186e-37
5.3022939344006e-38
1.4208165446494e-38
3.7878336636038e-39
1.0048681475009e-39
2.6532214768594e-40
6.9736438127534e-41
1.8249065896721e-41
4.7551920805017e-42
1.2343407377256e-42
3.1839262163157e-43
8.3505540247864e-44
1.8154416536461e-44
9.1996318961053e-45
0
0
0
0
0
3.82442352804e-50
5.8947161473252e-48
4.3715368831439e-46
2.083774486497e-44
7.2125507890464e-43
1.939684234546e-41
4.233029916558e-40
7.7282448829346e-39
1.2038673285562e-37
1.6252778905862e-36
1.9236891399795e-35
2.0094013432683e-34
1.8697815927703e-33
1.5567066723287e-32
1.1639942702565e-31
7.889700982288e-31
4.9897294252824e-30
3.0991671330337e-29
2.0420857398148e-28
1.4386132142763e-27
1.0090033275454e-26
6.6122453305754e-26
3.932481402895e-25
2.1020009878678e-24
1.0066123347633e-23
4.3129086320604e-23
1.6529167310391e-22
5.6688365375658e-22
1.7397185429789e-21
4.7686656276687e-21
1.1623586418247e-20
2.5032180518506e-20
4.7336567432859e-20
7.8610328026841e-20
1.1639797535242e-19
1.5889881569982e-19
2.0833502501179e-19
2.7146809694846e-19
3.5756700117864e-19
4.7321850772091e-19
6.1038400854666e-19
7.2723847880565e-19
7.6893194890683e-19
7.6535524308923e-19
7.4253695879377e-19
6.8415503641065e-19
5.7740336532685e-19
4.3461987913001e-19
2.8342971833204e-19
1.5581411495793e-19
7.0784601822151e-20
2.6650434075782e-20
8.6611310723894e-21
2.6112031923424e-21
7.8159395147764e-22
2.4033234900336e-22
7.6301484450639e-23
2.4881973008595e-23
8.2870314774166e-24
2.8033376791248e-24
9.5662377339466e-25
3.2659229011129e-25
1.1062304434536e-25
3.692685993831e-26
1.2099618809286e-26
3.8874083894602e-27
1.2259403166181e-27
3.8028887618919e-28
1.1629024887563e-28
3.5117201908471e-29
1.0485190722858e-29
3.0979693055859e-30
9.0635111566372e-31
2.6270717234867e-31
7.5479183074579e-32
2.150678866263e-32
6.0801799114168e-33
1.7062090807674e-33
4.7543196914051e-34
1.3159361992951e-34
3.619166666986e-35
9.8931721646239e-36
2.688636713783e-36
7.2661781176204e-37
1.9532479093674e-37
5.2237113563162e-38
1.3901389509449e-38
3.6819282157731e-39
9.707513977119e-40
2.548076884274e-40
6.6617159559602e-41
1.7304212627443e-41
4.5696682416136e-42
1.000023316643e-42
5.1066886030419e-43
0
0
0
0
8.250133374219e-62
1.0043256327282e-48
1.3502627117769e-46
8.9585987346867e-45
3.9042463403547e-43
1.2570354406521e-41
3.1891543354258e-40
6.6431343147144e-39
1.1692724706734e-37
1.7724242920231e-36
2.3495243067449e-35
2.7526203177223e-34
2.8667885301658e-33
2.6797995636477e-32
2.2487206403733e-31
1.7056532778231e-30
1.1738285008944e-29
7.2322385454904e-29
4.2639402899935e-28
2.7265491040717e-27
2.0478226260316e-26
1.7308202540947e-25
1.4712247637972e-24
1.1382766190603e-23
7.6777335502178e-23
4.472847873056e-22
2.2500324165706e-21
9.7872363690208e-21
3.6876623093432e-20
1.2053281306073e-19
3.4192431485647e-19
8.4084090769837e-19
1.78449343059e-18
3.2391998521494e-18
4.9411419879404e-18
6.2389296453283e-18
6.6207266868045e-18
6.7205328471293e-18
6.8571973422943e-18
7.1792170796678e-18
7.8489426677908e-18
8.9702480060223e-18
1.0357310710881e-17
1.1248629479668e-17
1.1304818038881e-17
1.1086293759159e-17
1.0383699053836e-17
8.9714739677165e-18
6.9339777549006e-18
4.6591427481684e-18
2.6506315392612e-18
1.2530347078752e-18
4.9337051382493e-19
1.6787659163312e-19
5.2762365896411e-20
1.6354655612114e-20
5.1858796042074e-21
1.6971822506886e-21
5.7159628033677e-22
1.9706527757362e-22
6.9114657360501e-23
2.4461689117809e-23
8.6547671547847e-24
3.0326498475772e-24
1.0445933176322e-24
3.5212844807651e-25
1.1602063372979e-25
3.7408591621726e-26
1.1833111288678e-26
3.6821802888987e-27
1.1297572347376e-27
3.4233878470096e-28
1.0256562430612e-28
3.0406246126268e-29
8.9250692940469e-30
2.5953407398952e-30
7.4807379150828e-31
2.1383624843858e-31
6.0646690437148e-32
1.7072800290465e-32
4.7724277360705e-33
1.3251363661708e-33
3.655991278065e-34
1.002533429959e-34
2.7331146184756e-35
7.4095121883348e-36
1.9979928655546e-36
5.3599850063522e-37
1.4308193165889e-37
3.8013692320265e-38
1.005286739329e-38
2.6475020154426e-39
6.9263276543716e-40
1.8419748685091e-40
4.0577233991466e-41
2.0888992396262e-41
0
0
0
0
2.1760426130215e-63
1.6947199336765e-47
2.1236123869908e-45
1.3227953788657e-43
5.4519217378529e-42
1.671136373608e-40
4.0605597244609e-39
8.1450394453565e-38
1.3874457625951e-36
2.0463840867697e-35
2.6546059342414e-34
3.0616208750432e-33
3.1595570255727e-32
2.9458050797807e-31
2.4767203257725e-30
1.892516171372e-29
1.3252208911885e-28
8.2317174334269e-28
4.6908002735993e-27
2.7686945683384e-26
2.0274429265999e-25
1.8788087268849e-24
1.8202143619709e-23
1.6344124586746e-22
1.2679176189291e-21
8.1754558690375e-21
4.4044794149301e-20
2.0181938858936e-19
7.9650079858018e-19
2.7224581293063e-18
8.0699270994214e-18
2.0712643684159e-17
4.5818249147861e-17
8.6500514149625e-17
1.3562120977652e-16
1.6879310924626e-16
1.7345108325406e-16
1.6940760396194e-16
1.5651412210835e-16
1.3379085797031e-16
1.1795860496456e-16
1.1856458202757e-16
1.2308250108882e-16
1.2864153449126e-16
1.2975060053651e-16
1.2797979897197e-16
1.2126848643432e-16
1.0664795591159e-16
8.4308991654195e-17
5.8218147495353e-17
3.4222395733029e-17
1.6822534435474e-17
6.9268414502658e-18
2.4696695783053e-18
8.1056784238646e-19
2.6081359687558e-19
8.5502356821668e-20
2.8913309243129e-20
1.0077414462773e-20
3.6024773005371e-21
1.311711172816e-21
4.820929754342e-22
1.7699174594371e-22
6.4254197278289e-23
2.2879563409083e-23
7.9510053056966e-24
2.6922108281855e-24
8.8917300781985e-25
2.8724155908705e-25
9.1054581669487e-26
2.8406141083813e-26
8.7404034700608e-27
2.6564909231367e-27
7.9832084555013e-28
2.3738752790906e-28
6.9890797277182e-29
2.0385220757479e-29
5.8936271320102e-30
1.6898313983359e-30
4.8072765420729e-31
1.3574728670519e-31
3.8062989837601e-32
1.0601386263584e-32
2.9339058830483e-33
8.0700899634482e-34
2.2068591089841e-34
6.0012490973293e-35
1.6232245886595e-35
4.3679477204573e-36
1.1695687003781e-36
3.1166549591592e-37
8.2693819285079e-38
2.1792281510777e-38
5.8371005157967e-39
1.2944366212975e-39
6.7202718946422e-40
0
0
0
0
-2.1590421387736e-79
2.0701337798124e-46
2.491790385213e-44
1.4941181926801e-42
5.9424729576807e-41
1.7620428156298e-39
4.1512282815392e-38
8.091000831709e-37
1.3418571080872e-35
1.9315873963254e-34
2.4522671996033e-33
2.7775164973358e-32
2.8280729370137e-31
2.6139158455632e-30
2.19083144251e-29
1.6746701460435e-28
1.1811275665382e-27
7.4939627304444e-27
4.2686199313789e-26
2.3253400266076e-25
1.5105742502777e-24
1.3723517812446e-23
1.4349465383585e-22
1.3873526860791e-21
1.1418073155347e-20
8.1388900119779e-20
4.9037800225138e-19
2.4652072626798e-18
1.0474711031239e-17
3.8455998294174e-17
1.2301824802173e-16
3.4156430174262e-16
8.1566840849006e-16
1.6530521270902e-15
2.7628555838248e-15
3.6034610017121e-15
3.7465957173668e-15
3.6479347391559e-15
3.309910912207e-15
2.6751851829328e-15
1.9339516612959e-15
1.4241403661979e-15
1.2533049924814e-15
1.2291584713478e-15
1.2153787603559e-15
1.186632098941e-15
1.1205052115697e-15
9.9425770003037e-16
8.025210994444e-16
5.7108293075858e-16
3.4847562864663e-16
1.7885916576477e-16
7.7173333585929e-17
2.8826075094829e-17
9.8715306413448e-18
3.2975667805156e-18
1.1191914224063e-18
3.9183493621717e-19
1.4160901609475e-19
5.2574112597484e-20
1.989953863442e-20
7.6035336365513e-21
2.9003825973666e-21
1.0927164937213e-21
4.0308427695753e-22
1.4476835836586e-22
5.0507171089651e-23
1.7129042167586e-23
5.66244493071e-24
1.8312835408335e-24
5.8148810356616e-25
1.818065249702e-25
5.6083922204372e-26
1.7092306071537e-26
5.150905945235e-27
1.5359886064868e-27
4.5350601720392e-28
1.3265522917045e-28
3.8463844533178e-29
1.106085945202e-29
3.1559626540449e-30
8.9384054627433e-31
2.5138213500012e-31
7.0226562631065e-32
1.9493747315396e-32
5.3782357714743e-33
1.4751940447594e-33
4.0237321438991e-34
1.0916352325657e-34
2.9463726945766e-35
7.9127875717444e-36
2.1155090416971e-36
5.6165167671018e-37
1.5154403697609e-37
3.383108446249e-38
1.7719683540882e-38
0
0
0
0
0
1.9561110271341e-45
2.2983976273449e-43
1.3456379919765e-41
5.2287194100648e-40
1.5157781437713e-38
3.493811692737e-37
6.6666766546873e-36
1.083004490705e-34
1.5282018789301e-33
1.903435519157e-32
2.117969379846e-31
2.1239990556563e-30
1.938628056321e-29
1.6125936033983e-28
1.227541521766e-27
8.6386800582105e-27
5.5578265313421e-26
3.2319726474921e-25
1.7043207624989e-24
9.4937379782811e-24
7.3290511385095e-23
7.6477812483121e-22
7.7296912199327e-21
6.7564587052101e-20
5.0655490293786e-19
3.3240315704302e-18
1.9071220539589e-17
9.531638987604e-17
3.9431017340038e-16
1.3648408991063e-15
4.0752472008192e-15
1.0540432650287e-14
2.329143063009e-14
4.2729290162629e-14
6.1299564860117e-14
6.6880522008424e-14
6.5485935955479e-14
5.9631240839578e-14
4.7516432261421e-14
3.1428054239715e-14
1.8246036490651e-14
1.172170087469e-14
9.7458303280133e-15
9.1778275775543e-15
8.8036823586101e-15
8.2916826402635e-15
7.4463593080825e-15
6.1650179577226e-15
4.5444716137381e-15
2.8905677034164e-15
1.5515126272517e-15
7.0057862835168e-16
2.7345644485306e-16
9.7578123166428e-17
3.3868021591698e-17
1.1925449474971e-17
4.3320837075059e-18
1.6262289687894e-18
6.2788299159e-19
2.4733105209514e-19
9.8362373322038e-20
3.903809230583e-20
1.5291167610657e-20
5.8574462850406e-21
2.1804316407837e-21
7.8628251271183e-22
2.7465240184042e-22
9.3153123149864e-23
3.079695374531e-23
9.966883475329e-24
3.169289983333e-24
9.928918339939e-25
3.0701256530081e-25
9.3803127851775e-26
2.8341989481249e-26
8.4739007068121e-27
2.5086889526834e-27
7.3583259877072e-28
2.1395404419454e-28
6.1700567695685e-29
1.7655500646591e-29
5.0149662111082e-30
1.4145270611098e-30
3.963274255562e-31
1.1033902449662e-31
3.0532224384028e-32
8.3995291504778e-33
2.2978569864804e-33
6.2526120034332e-34
1.6925657012389e-34
4.5602916078768e-35
1.2199006900519e-35
3.3161523604646e-36
7.452661336679e-37
3.9395342016412e-37
0
0
0
0
0
1.4917365587974e-44
1.7271930559276e-42
9.9599217172375e-41
3.8108889991625e-39
1.0877707430704e-37
2.4687858888317e-36
4.6384423422652e-35
7.4186785502738e-34
1.0306001087476e-32
1.2635333000129e-31
1.3839768199438e-30
1.3674019314467e-29
1.2305452142932e-28
1.0125683386693e-27
7.6492145094199e-27
5.3445842307633e-26
3.4473347459453e-25
2.0391259121763e-24
1.0882325696495e-23
5.5086680749208e-23
3.3309131182296e-22
2.9393501239337e-21
2.9138045835449e-20
2.7121794481564e-19
2.1457277647004e-18
1.513309825309e-17
9.7090682407742e-17
5.2237362412833e-16
2.5840304927894e-15
1.1586639192142e-14
4.1648841415691e-14
1.2463646664363e-13
3.0985081507592e-13
6.0838752271054e-13
8.706699400171e-13
9.2039666265532e-13
8.8557784229405e-13
7.7247054063002e-13
5.7165615473671e-13
3.4355680406245e-13
1.7362317732362e-13
9.0730756519287e-14
6.3619638416264e-14
5.6097943015593e-14
5.2863572535639e-14
4.982379568548e-14
4.5414839563951e-14
3.866221246475e-14
2.9582581953782e-14
1.9637769434886e-14
1.1030668051371e-14
5.2186792655743e-15
2.1336550085678e-15
7.9573069415539e-16
2.8771832356804e-16
1.0529810599873e-16
3.9744402902683e-17
1.5518005996791e-17
6.2390855971044e-18
2.5609568818706e-18
1.0614376905652e-18
4.3896891339282e-19
1.7911896720139e-19
7.1434586871374e-20
2.7649113807707e-20
1.0342596567678e-20
3.734460671304e-21
1.3037295380659e-21
4.417353786939e-22
1.4596638340426e-22
4.7258723884865e-23
1.5046698075691e-23
4.7228104434662e-24
1.4635768733137e-24
4.4822987613599e-25
1.3575909806223e-25
4.0691437596051e-26
1.2077484624971e-26
3.5518029834132e-27
1.0355189880777e-27
2.9944519767271e-28
8.5924502922985e-29
2.4475304570079e-29
6.9231828691601e-30
1.9453248591978e-30
5.4314736048578e-31
1.5073109785307e-31
4.1587120737046e-32
1.1410131456143e-32
3.1137144183534e-33
8.4556434063232e-34
2.2793651076489e-34
6.2434017787392e-35
1.4125496424805e-35
7.5385373461869e-36
0
0
0
1.2076111472401e-72
3.6362754549994e-58
9.4508641165256e-44
1.084806613807e-41
6.1969480710733e-40
2.347400973282e-38
6.6303211071903e-37
1.4885988888788e-35
2.7658068272691e-34
4.3727529755806e-33
6.0024355925122e-32
7.2673463981065e-31
7.8563422937361e-30
7.6592987330943e-29
6.7978419938724e-28
5.5241702219983e-27
4.1299367877168e-26
2.8568671073835e-25
1.8331683065437e-24
1.0894089805225e-23
5.9298975419401e-23
2.951577688357e-22
1.4874103278018e-21
9.7098757325148e-21
8.1183644640324e-20
7.3632637893898e-19
6.0691663956643e-18
4.6188563759775e-17
3.2180540387424e-16
1.8887584193134e-15
1.0689060197835e-14
5.1562708902609e-14
2.7025482690251e-13
1.102621428382e-12
3.264747898791e-12
7.1720734845189e-12
1.0424363932226e-11
1.0659378702744e-11
9.8499839152019e-12
7.7996138537945e-12
4.9144688029239e-12
2.4419812002502e-12
1.0358631239757e-12
4.7290214806428e-13
3.0692804442099e-13
2.6716581224908e-13
2.5392023307614e-13
2.4252020891039e-13
2.251134224652e-13
1.9634103835852e-13
1.549561176406e-13
1.0693921206232e-13
6.3009123023277e-14
3.1516356115486e-14
1.3665195983921e-14
5.3846810313449e-15
2.0417414534655e-15
7.790580207599e-16
3.0602491749863e-16
1.2444490336632e-16
5.2173883162628e-17
2.234741646359e-17
9.6671687138157e-18
4.1730596625102e-18
1.7776494572369e-18
7.4012436483046e-19
2.9887548077447e-19
1.1642493485094e-19
4.3632472995098e-20
1.5738748745244e-20
5.4824241107384e-21
1.8539061388742e-21
6.12034564063e-22
1.9821355894435e-22
6.3188062912696e-23
1.9869241935017e-23
6.1701827272079e-24
1.893804536559e-24
5.748940192243e-25
1.7271935236451e-25
5.1389166413485e-26
1.5150875202049e-26
4.4286599709746e-27
1.2840522539561e-27
3.6944849348678e-28
1.0552441471288e-28
2.9931743294916e-29
8.4339417279573e-30
2.3614412631812e-30
6.5718855066925e-31
1.8183630372931e-31
5.0030537964632e-32
1.3695676188849e-32
3.7208514531127e-33
1.0270854969803e-33
2.3393833833267e-34
1.2609286281258e-34
0
0
0
2.8792595828638e-70
2.1951676580668e-56
5.0772632775758e-43
5.8017953349992e-41
3.2967263295204e-39
1.2412403559526e-37
3.4823727564443e-36
7.761718522884e-35
1.4309281620815e-33
2.2434746163931e-32
3.0523187235322e-31
3.6601398548969e-30
3.915797108055e-29
3.7751140367088e-28
3.309452083629e-27
2.6559234911557e-26
1.9621091689855e-25
1.3413071851956e-24
8.5208700138865e-24
5.0394990688193e-23
2.7640232307443e-22
1.3940308065919e-21
6.5953827730732e-21
3.3432527125135e-20
2.06721139039e-19
1.5421663810632e-18
1.1928437246151e-17
8.9771273554336e-17
6.5052512539672e-16
4.2570659688734e-15
2.5934825615401e-14
1.3877963496169e-13
7.5947936468176e-13
3.531381938203e-12
1.5689477909273e-11
5.1043039259629e-11
8.5676522590825e-11
8.6153936700821e-11
7.4446757368549e-11
5.085000861904e-11
2.6016217946504e-11
1.0941383575318e-11
4.5934257447997e-12
2.2812082478802e-12
1.4323422420591e-12
1.1378143111172e-12
1.038332971455e-12
9.7763603211699e-13
9.0527129582266e-13
7.9729960241004e-13
6.4510668767057e-13
4.6388292434407e-13
2.8912525180065e-13
1.5465776719779e-13
7.193752541925e-14
3.0238433854448e-14
1.2110615170381e-14
4.843374994911e-15
1.9878812688146e-15
8.4444627575956e-16
3.7001009325363e-16
1.6567264880866e-16
7.4923472124047e-17
3.3821304583008e-17
1.5075077705447e-17
6.5714751365649e-18
2.778403327848e-18
1.1317144987494e-18
4.4215844653235e-19
1.6550142410336e-19
5.948992021133e-20
2.0644459347036e-20
6.9624151927504e-21
2.2961417759947e-21
7.4392071919937e-22
2.3746270409266e-22
7.4800450952868e-23
2.3273630179418e-23
7.1578963449068e-24
2.1775156850929e-24
6.5566638192975e-25
1.9553664318046e-25
5.7789703829661e-26
1.6934623860245e-26
4.9227061251065e-27
1.4200882060002e-27
4.0669872381407e-28
1.1567124043493e-28
3.2682100625991e-29
9.1759789306923e-30
2.5607726705471e-30
7.1049003901963e-31
1.9608744148909e-31
5.3698213148676e-32
1.4939756855978e-32
3.4257894648209e-33
1.8655838625679e-33
0
0
0
0
1.2271971101872e-55
2.3468441615012e-42
2.678300924915e-40
1.5186164687506e-38
5.7010256222369e-37
1.5935765472932e-35
3.5363751186759e-34
6.486954586021e-33
1.0113107615671e-31
1.3673208803262e-30
1.62813816334e-29
1.7282877006479e-28
1.6516610413699e-27
1.4334119127006e-26
1.1376360636892e-25
8.3065377936812e-25
5.6085897597042e-24
3.5187080773136e-23
2.0590478943217e-22
1.1245894242268e-21
5.710249803178e-21
2.6927034487305e-20
1.2257212202551e-19
5.8744539703137e-19
3.2307532935313e-18
2.0114814590012e-17
1.3219683907692e-16
8.6244999439291e-16
5.5683177611202e-15
3.3534919860556e-14
1.9147101930683e-13
1.0014445706829e-12
4.9576541235353e-12
2.2179364400382e-11
8.0833061159014e-11
2.7484120889462e-10
4.0802973867048e-10
3.6637965545695e-10
2.3245617304924e-10
1.1382217373669e-10
5.329134092885e-11
2.8093250879328e-11
1.6366731459634e-11
9.4148788600173e-12
5.38390859384e-12
3.7408881776738e-12
3.2172300737058e-12
2.926173305984e-12
2.6064015633827e-12
2.1771804348703e-12
1.6437649773324e-12
1.0895374216902e-12
6.2517901727829e-13
3.1287674725617e-13
1.4100337900033e-13
6.0066944046858e-14
2.5352472920651e-14
1.0930578298574e-14
4.868979967948e-15
2.2359863549296e-15
1.0490084092012e-15
4.9702136578117e-16
2.3513911940954e-16
1.0993765751588e-16
5.0322246076594e-17
2.2353687907664e-17
9.5596235836001e-18
3.911241565595e-18
1.526149736843e-18
5.6846177754299e-19
2.0312727083233e-19
7.0147616307295e-20
2.359186607538e-20
7.7746733907325e-21