/*--------------------------------*- C++ -*----------------------------------*\
  =========                 |
  \\      /  F ield         | OpenFOAM: The Open Source CFD Toolbox
   \\    /   O peration     | Website:  https://openfoam.org
    \\  /    A nd           | Version:  7
     \\/     M anipulation  |
\*---------------------------------------------------------------------------*/
FoamFile
{
    version     2.0;
    format      ascii;
    class       volScalarField;
    location    "1.9";
    object      alpha.water;
}
// * * * * * * * * * * * * * * * * * * * * * * * * * * * * * * * * * * * * * //

dimensions      [0 0 0 0 0 0 0];

internalField   nonuniform List<scalar> 
6000
(
0
0
0
0
0
0
0
0
0
0
0
0
0
0
0
0
0
0
0
0
0
0
0
0
0
0
0
0
0
0
0
0
0
0
0
0
0
0
0
0
0
0
0
0
0
0
0
0
0
0
0
0
0
0
0
0
0
0
0
0
0
0
0
0
0
0
0
0
0
0
0
0
0
0
0
0
0
0
0
0
0
0
0
0
0
0
0
0
0
0
0
0
0
0
0
0
0
0
0
0
0
0
0
0
0
0
0
0
0
0
0
0
0
0
0
0
0
0
0
2.6091473474852e-200
2.7576768188734e-200
3.636349210418e-200
5.7459357143089e-204
0
5.1290767766724e-201
1.1215010929367e-200
1.4504177599298e-217
2.3008436572773e-290
4.5325554997805e-219
1.1117910521545e-202
1.3961046027281e-202
0
1.613051751349e-203
1.7533531298592e-203
1.4994025949379e-203
1.1635277472873e-203
5.2407672966213e-219
8.2865826870246e-220
5.9380879034039e-205
6.4533785408325e-205
1.288945470719e-218
1.1946229723229e-205
4.3899172457692e-218
1.3879945509515e-206
1.6692552061252e-217
3.1495322673631e-207
2.5880926556306e-207
2.5970092806284e-216
3.4408505651922e-208
8.2864968067449e-216
4.4653170831708e-209
2.8368138138483e-209
8.3295209379821e-215
3.0735326050423e-210
2.8899326454482e-214
4.6665633882312e-214
8.3024598779885e-212
2.2011787191288e-213
1.7907100853736e-212
5.4829907768449e-213
3.8830516049344e-213
1.3197185476281e-213
4.6841414360821e-214
1.5828367661297e-214
5.1736676520045e-215
1.6477628784032e-215
5.1472348341743e-216
1.5826161436248e-216
5.8657404273931e-217
1.5548867441932e-217
5.5655047058849e-218
1.4358891077436e-218
4.9851807608087e-219
1.2563610254958e-219
3.5293700207253e-220
9.8337155399231e-221
3.2639068548188e-221
9.4776188143799e-222
2.2810940126427e-222
7.0868838724399e-223
1.6828677847554e-223
4.5675290208533e-224
1.1837487001733e-224
3.1294223767937e-225
8.2433940310123e-226
2.1683758518213e-226
5.693445571971e-227
1.4915035399583e-227
3.8977319872647e-228
1.0158971650571e-228
2.6403716241569e-229
6.8421965890248e-230
1.7676281659726e-230
4.5521064175347e-231
1.1685087535309e-231
2.9897239248898e-232
7.6242916057895e-233
1.9379114840179e-233
4.909496233211e-234
1.6560648753152e-234
0
0
0
0
0
0
0
0
0
0
0
0
0
0
0
0
0
0
0
5.1487591211862e-139
9.4417873768018e-136
3.1603361860785e-138
2.7054877228197e-134
6.8147596471289e-115
9.9442088130723e-115
2.7034337343237e-115
8.0920914611822e-116
1.1190928232233e-132
1.2125474078709e-120
8.6179636099641e-118
4.4666427114859e-118
3.7256498007951e-119
6.7178761075671e-137
3.1903826253518e-121
6.7673138979945e-121
3.0513762216819e-121
1.4588590957391e-122
5.5002610630705e-139
3.8247799825745e-124
3.0101159889527e-124
2.8828181287933e-128
2.2190748350849e-125
1.4041899599301e-129
0
1.4473624553346e-128
7.8272254720865e-129
7.2489796049235e-129
2.2394685364949e-130
8.3882749057968e-131
2.4049560471493e-131
2.3359601073291e-132
2.6679982485997e-132
8.3951225797104e-134
1.2427923213724e-134
1.4673325836768e-134
0
5.6442737856499e-136
0
9.3303744994031e-141
0
3.0846741488275e-142
1.3332020790076e-139
3.8165727960438e-156
6.7140554465403e-142
0
0
3.2036677129753e-143
0
5.2958906072887e-148
0
5.4478627449948e-147
2.6193403158557e-147
2.2727513297647e-147
1.4403631627267e-151
-1.3892242184282e-164
-8.8861510065473e-166
6.2542598644163e-151
3.9165327902033e-153
6.7352949337332e-168
5.2011261723313e-153
-2.1047796667916e-169
9.1776147899495e-154
0
4.1663086975355e-155
9.9698435036143e-156
2.3351741334696e-156
5.4062033199978e-157
0
2.2496934306446e-158
5.0956877926215e-159
5.0539682822968e-176
2.0787833702043e-160
0
8.4080800238754e-162
1.8558454379859e-162
4.0667135135826e-163
8.8517208633772e-164
0
3.5140574337158e-165
9.6813682419391e-166
0
0
0
0
0
0
0
0
0
0
0
0
0
0
0
0
0
-2.5248641261612e-78
-2.1575986418507e-77
-8.5385563083406e-77
-2.1479332924521e-76
-3.9394611201687e-76
-5.6944242163934e-76
1.2726206437304e-61
9.8083850427662e-63
3.6552195259652e-61
2.4579028567219e-60
1.5625510641926e-59
6.5687334928248e-59
4.3612040631367e-58
9.1151530755764e-56
7.1761491292943e-55
3.8802883198881e-54
5.0265237958581e-53
2.1005394045476e-52
1.6167858392394e-51
6.5705043910076e-51
2.2736556379215e-50
1.013971276389e-49
2.8572746508438e-49
8.6773466634788e-49
2.3062931823462e-48
4.7800379864728e-48
7.9066160842913e-48
1.4605925248241e-47
2.566199065429e-47
4.609604313054e-47
1.6418785738496e-46
1.8514488006096e-46
1.7891340918615e-46
1.6074039410674e-46
1.3818080318089e-46
1.2938454607708e-46
1.0627487222744e-46
6.4938939122099e-47
2.2999605259656e-47
4.7419971975462e-48
2.3983031353948e-49
6.7234131066808e-50
5.867858906402e-51
9.694742217803e-52
4.9007459659346e-52
4.319713504886e-53
1.8803735337522e-53
1.7366105660872e-54
2.8995704064199e-55
1.4572520316993e-55
1.2985107140433e-56
5.6037066937329e-57
5.2256696101787e-58
8.705203998316e-59
4.8572251528246e-59
7.5181068142555e-60
2.2472934460115e-60
1.8036352383759e-61
2.9148790063168e-62
1.333210107107e-62
1.2924061691343e-63
1.5536311880257e-64
4.0528011792097e-65
7.9503119628757e-66
1.4799171434254e-66
7.9094721723558e-67
2.4474927749067e-67
6.1653175058681e-68
1.3204513280081e-68
8.5196954944873e-70
1.2795290918828e-70
6.3513624340635e-71
1.8682378721998e-71
1.338499660768e-72
2.0886231821738e-73
1.0306073901618e-73
3.1432222166789e-74
5.3357226660546e-75
1.2469487582358e-75
9.2148079488782e-77
4.0391326544457e-77
9.8528326175371e-78
4.3810804513204e-78
0
0
0
0
0
0
0
0
0
7.9754846607355e-51
4.1652181481971e-49
3.5439154506689e-48
6.7427091311731e-47
7.5995342018975e-46
3.1600735535668e-45
2.488000483155e-45
0
6.9586573501044e-44
-7.5570703336192e-52
0
3.1115076389306e-62
0
3.1747142411742e-44
-1.0568912418054e-60
6.1862297257255e-62
2.9559314673403e-61
1.8221766609301e-60
1.1569946686136e-59
5.1723648908367e-59
3.3163745890099e-58
5.0904135510075e-46
8.0156005435571e-55
2.987431419821e-54
1.7309587215289e-45
2.3376370019222e-52
2.3835175969074e-40
1.8982914992615e-44
2.4953688819839e-50
1.8316890079234e-43
3.1301464768188e-49
7.0183483659575e-49
1.9019678998224e-48
4.1511147758197e-48
7.3573890873642e-48
1.2741476730473e-45
2.4841432108567e-46
4.9573815517648e-47
1.1198553655356e-46
1.0337075870413e-44
7.7472563619243e-44
1.7203237163658e-46
1.6763271324415e-45
1.3674669864393e-46
8.9274330686892e-45
5.0221064753731e-47
2.5745912806211e-47
1.8755806336308e-46
9.8337455948192e-49
1.9381545046146e-47
3.7211339096357e-50
6.9791597283274e-51
3.7936907912305e-49
2.8408792244895e-52
3.7161629398424e-50
1.1342458840529e-53
2.1292274238057e-54
6.3449860875793e-52
8.6354998100215e-56
5.3489348095886e-53
3.4376728027297e-57
6.4483463334569e-58
2.6662416374259e-54
1.9314534310088e-58
1.5409851227641e-55
1.1473385065503e-60
2.1421757593379e-61
6.5563003386966e-57
4.3737647252198e-61
1.5724610087469e-63
1.4473374981274e-62
5.8257670564481e-65
1.4025130498094e-61
1.193366080463e-60
2.3496690071032e-61
1.5569424248572e-62
1.0025977974537e-61
6.2162520763347e-66
9.4608165118255e-70
1.0190853161751e-64
6.4362749137925e-65
8.3703161722166e-72
5.9962739962847e-67
4.9106937649843e-66
1.0465299323587e-66
4.0152918406804e-68
5.6544974579856e-67
3.4269974914226e-71
9.404515358805e-68
2.450873146201e-69
1.0465973321895e-68
0
0
0
0
0
0
0
2.3492658068627e-41
1.9819383459668e-39
8.1652332583496e-38
2.1846150783693e-36
4.2865834356726e-35
6.5668223201078e-34
8.0628175747867e-33
8.0803968431385e-32
6.9048883205817e-31
5.4164935787424e-30
4.1425188085617e-29
3.1100720973832e-28
2.2244160872296e-27
1.4676685978725e-26
8.7470504536899e-26
4.6602587879365e-25
2.2121712928413e-24
9.3598475360573e-24
3.5374175004346e-23
1.1975895426031e-22
3.6436242232343e-22
9.998494839223e-22
2.4850502759443e-21
5.6221285746002e-21
1.1645584992327e-20
2.222725412072e-20
3.9331378678338e-20
6.4813636819333e-20
9.9503320034882e-20
1.4101309370992e-19
1.7902985084789e-19
1.9639022650434e-19
1.9636271879362e-19
1.9139246639785e-19
1.7691738644857e-19
1.491034403734e-19
1.1052571482173e-19
6.928463682468e-20
3.5256519899126e-20
1.410810341067e-20
4.469031177065e-21
1.2068307430096e-21
3.1303379270982e-22
8.4931059272718e-23
2.4487398056396e-23
7.3760150435602e-24
2.2837943969407e-24
7.19777263151e-25
2.2907649506322e-25
7.2975215664537e-26
2.3063040714183e-26
7.1806562456104e-27
2.1943338500184e-27
6.5789920020871e-28
1.9387890140273e-28
5.6304237892017e-29
1.6149694778145e-29
4.5818931959432e-30
1.2869315893167e-30
3.5804053704108e-31
9.8714191999673e-32
2.6984270567916e-32
7.3171904369303e-33
1.9692000699977e-33
5.2618269456381e-34
1.3965382884715e-34
3.6828962468316e-35
9.6534758945896e-36
2.5157174877123e-36
6.5198963682241e-37
1.6808469316735e-37
4.311458562457e-38
1.1005796804672e-38
2.7964437640662e-39
7.0738888918483e-40
1.7817748303581e-40
4.4695099634798e-41
1.1167222276515e-41
2.7795225628139e-42
6.892757309844e-43
1.7032095431962e-43
4.1941789096676e-44
1.0293858739125e-44
2.5183019639562e-45
6.1415683477474e-46
1.4932544916386e-46
3.6200247802445e-47
8.7506539299232e-48
2.1098143277392e-48
5.0641960321484e-49
1.2330532617908e-49
2.5442819358264e-50
1.1559754985612e-50
0
0
0
0
0
0
2.1375455536689e-41
2.6504907324813e-39
1.47586550144e-37
5.1229280472737e-36
1.2641852545879e-34
2.3910668436182e-33
3.621876744264e-32
4.4904360742937e-31
4.6433141065663e-30
4.0760345044857e-29
3.0793447932439e-28
2.1078617145543e-27
1.4177529587091e-26
9.5560599959891e-26
6.17667391012e-25
3.7106478446668e-24
2.0405718747763e-23
1.0143874111468e-22
4.5119961338923e-22
1.7843431514116e-21
6.2560408368463e-21
1.9443066119793e-20
5.3679902783296e-20
1.3228468636284e-19
2.9328985887031e-19
5.9152848557698e-19
1.0992601469968e-18
1.9041928748805e-18
3.0970328612935e-18
4.7317993364659e-18
6.7257749621918e-18
8.6386278386897e-18
9.6312837744868e-18
9.6820039913245e-18
9.4774646099956e-18
8.8391820159218e-18
7.5592764405455e-18
5.7150385408892e-18
3.6804152234726e-18
1.9435271722321e-18
8.1741128003476e-19
2.7512224094334e-19
7.9009594356946e-20
2.1552627757905e-20
6.0749564977324e-21
1.8125192939306e-21
5.664833735692e-22
1.8274523472736e-22
6.0161811973676e-23
2.0004031105422e-23
6.6456977203254e-24
2.1835243083944e-24
7.040834218929e-25
2.2192554931178e-25
6.8355518909788e-26
2.0620603744717e-26
6.112324931601e-27
1.7856194579584e-27
5.1519846997421e-28
1.470023987404e-28
4.1511999101728e-29
1.1608308284176e-29
3.2162108249898e-30
8.833648945162e-31
2.4065262273318e-31
6.5059750704771e-32
1.7462176090851e-32
4.6549980986478e-33
1.2329044666695e-33
3.2453989475434e-34
8.4930588233153e-35
2.2102230572142e-35
5.7212826580937e-36
1.4734558467113e-36
3.7762515830155e-37
9.6327828169281e-38
2.4461926905771e-38
6.1851920537962e-39
1.5574353173062e-39
3.9059561334378e-40
9.7581469353218e-41
2.4287812763702e-41
6.023452925381e-42
1.4886430123305e-42
3.666675827422e-43
9.0019730740404e-44
2.2030781982258e-44
5.3751631351409e-45
1.3075350456268e-45
3.17204863493e-46
7.6603299414003e-47
1.8761354464258e-47
3.8973290474117e-48
1.7788562105865e-48
0
0
0
0
0
9.536363954968e-42
1.6168067586005e-39
1.163012979129e-37
5.0120407406163e-36
1.50348892485e-34
3.4035922246061e-33
6.1199719350967e-32
9.0292911024006e-31
1.1128206342692e-29
1.1657270610808e-28
1.045742075396e-27
8.0868216430087e-27
5.4935121526203e-26
3.3452713808476e-25
2.0066862170529e-24
1.3322245089266e-23
8.78998812205e-23
5.1975021757188e-22
2.7512172480335e-21
1.3122782023873e-20
5.5882337525713e-20
2.0949206800782e-19
6.8293914280148e-19
1.9195512534487e-18
4.633118615644e-18
9.6339607152939e-18
1.7536564949801e-17
2.878956389098e-17
4.4276904838382e-17
6.5993833094163e-17
9.6856751100097e-17
1.384842354722e-16
1.8534091687764e-16
2.1817478077073e-16
2.2423151176909e-16
2.2108115171048e-16
2.0898658832678e-16
1.8252357042522e-16
1.4129768107951e-16
9.3584718891976e-17
5.113581571618e-17
2.245407676369e-17
7.9651024335251e-18
2.4210042834245e-18
6.957881926874e-19
2.0496469181934e-19
6.3653018013831e-20
2.0722202928737e-20
6.9792250115232e-21
2.4021864224861e-21
8.3491242409685e-22
2.8949840543922e-22
9.9042066863095e-23
3.315400911032e-23
1.0809391586665e-23
3.4299116792413e-24
1.0615455251653e-24
3.2165924457651e-25
9.5791996459565e-26
2.8122431491328e-26
8.1548207643387e-27
2.3383106085998e-27
6.634681573084e-28
1.8638822438827e-28
5.1873967279817e-29
1.4310957982418e-29
3.9157891026137e-30
1.0632127331258e-30
2.8659219047159e-31
7.6722546653663e-32
2.0405649430337e-32
5.3937082627333e-33
1.4173056213221e-33
3.7033751912144e-34
9.6249806573052e-35
2.4886934078594e-35
6.4033355579432e-36
1.6398031748377e-36
4.1803153346845e-37
1.0610456199196e-37
2.6818697351064e-38
6.7512836065662e-39
1.6929433999299e-39
4.2292618473509e-40
1.0527081397153e-40
2.6111074367747e-41
6.4545216953422e-42
1.5902755838156e-42
3.9056626159115e-43
9.5623333353874e-44
2.3345663696718e-44
5.6731712276579e-45
1.3978561284013e-45
2.9235638397996e-46
1.3410488725684e-46
0
0
0
0
0
4.0915545063973e-40
4.9115337056671e-38
2.8298795684883e-36
1.0479236523326e-34
2.8197954349557e-33
5.9014563861059e-32
1.0033029198053e-30
1.4258447270129e-29
1.7224380590669e-28
1.7968666045412e-27
1.624016315268e-26
1.2820004676289e-25
8.9085635399831e-25
5.3651382178774e-24
2.9984520293964e-23
1.6603800762498e-22
1.155135918195e-21
1.0835425960354e-20
9.8572152436715e-20
6.7106210348418e-19
3.601441305832e-18
1.5798198541413e-17
5.7080715975621e-17
1.6950952349313e-16
4.0897316396079e-16
7.9380732472584e-16
1.1596765944201e-15
1.3372318213633e-15
1.4205094665497e-15
1.5178493699241e-15
1.6963618289752e-15
2.0152631608363e-15
2.5025388544838e-15
3.0246975149135e-15
3.2539423536046e-15
3.2359958734961e-15
3.1067250778079e-15
2.7785998917596e-15
2.2064637760106e-15
1.5017501526287e-15
8.4570976935593e-16
3.8533690712945e-16
1.4323270910006e-16
4.598960498135e-17
1.3971388986815e-17
4.3280464310045e-18
1.4073378524149e-18
4.7927844294406e-19
1.6898274634656e-19
6.0904603702223e-20
2.2149795737704e-20
8.0247225541254e-21
2.8633127309774e-21
9.9741148672111e-22
3.3738884134775e-22
1.1064259997043e-22
3.5234203480591e-23
1.0938112402642e-23
3.3256253622184e-24
9.9433654164782e-25
2.9320129479804e-25
8.5408333192967e-26
2.4600418308887e-26
7.0108296174744e-27
1.9780601773734e-27
5.5286803134463e-28
1.5317271184747e-28
4.2088621488419e-29
1.147594752819e-29
3.106302793036e-30
8.3502671779671e-31
2.230037716035e-31
5.9186146879038e-32
1.5615404291074e-32
4.0966667385391e-33
1.0689610645094e-33
2.7749059427646e-34
7.1677629151381e-35
1.8427023778183e-35
4.7156786449123e-36
1.2015075210391e-36
3.048407499766e-37
7.7028294786787e-38
1.9387451333959e-38
4.8611952157581e-39
1.2144304153533e-39
3.0231636527482e-40
7.4999671700421e-41
1.8544424016982e-41
4.570449517112e-42
1.1231148111879e-42
2.7467568596269e-43
6.8099679505588e-44
1.4340391856015e-44
6.6132810875295e-45
0
0
0
0
9.4948219746692e-53
8.4079264533539e-39
8.7716707190932e-37
4.5105447156671e-35
1.5225075269414e-33
3.7950372682002e-32
7.4531480167003e-31
1.2024462602669e-29
1.6391091070097e-28
1.922631091939e-27
1.9707030828852e-26
1.7716884603598e-25
1.4086480964074e-24
9.9358252759616e-24
6.1239717865962e-23
3.4140242862705e-22
1.6609324800903e-21
1.0060343748389e-20
1.0191407715582e-19
9.7939279730489e-19
1.2101067028737e-17
1.1184155255231e-16
7.0112203903664e-16
3.1668096030681e-15
1.0641344784103e-14
2.632689822473e-14
4.5730280539721e-14
5.4139848495812e-14
5.3148773518997e-14
4.8000106238014e-14
3.7757729881384e-14
2.7414149789828e-14
2.588082315389e-14
2.7214280065077e-14
3.0268943678353e-14
3.3084918359652e-14
3.333079340093e-14
3.2432665957151e-14
2.9544319754549e-14
2.4033489407878e-14
1.6781088326614e-14
9.7301893097555e-15
4.5969164260383e-15
1.7900700820126e-15
6.0766316024334e-16
1.9566253866883e-16
6.4023967017684e-17
2.1907423453962e-17
7.8386439673469e-18
2.9022462113528e-18
1.0975235082757e-18
4.1822613094075e-19
1.5853685142651e-19
5.9113808267565e-20
2.1488806067322e-20
7.5688892441775e-21
2.5755947288246e-21
8.4717109174471e-22
2.7029250528888e-22
8.4086375192223e-23
2.5640353728975e-23
7.6947010647906e-24
2.2783763874124e-24
6.6652094064367e-25
1.9279274626472e-25
5.5172349737973e-26
1.5630720599096e-26
4.3867783750145e-27
1.2203716481018e-27
3.3671427261871e-28
9.2186469386295e-29
2.5055144830842e-29
6.7626831957475e-30
1.8133705497742e-30
4.8321406158484e-31
1.2799903924987e-31
3.371369390075e-32
8.8317662009583e-33
2.3016075306266e-33
5.9683050630052e-34
1.5402591018617e-34
3.9567686470177e-35
1.0119693644967e-35
2.5771801968579e-36
6.5364114839931e-37
1.65125292965e-37
4.1555277976571e-38
1.0419156132332e-38
2.6030639991831e-39
6.4808717249593e-40
1.6081116102835e-40
3.9779852020712e-41
9.7924596775538e-42
2.4432341178167e-42
5.1803262431314e-43
2.4026715634183e-43
0
0
0
0
-4.4919381635637e-64
1.1001921968902e-37
1.0686202338508e-35
5.1545566110294e-34
1.643159684535e-32
3.8904136562094e-31
7.2910465411628e-30
1.1269526803361e-28
1.4776486093548e-27
1.6767717706336e-26
1.6737574178257e-25
1.4800477026117e-24
1.1697991284778e-23
8.2685251059129e-23
5.179929506015e-22
2.9591063371975e-21
1.4167878557488e-20
6.9572245584726e-20
5.3884232133248e-19
5.4293112529643e-18
7.4227033794108e-17
8.1914396239634e-16
6.5068108853524e-15
3.7074048339216e-14
1.3957137022301e-13
4.1084518987319e-13
8.5951791439127e-13
1.1256248861579e-12
1.1132363602253e-12
1.0101408020534e-12
8.0137492386463e-13
5.3110171015891e-13
3.1863194631962e-13
2.4472137093311e-13
2.4638965937409e-13
2.5325369608869e-13
2.5382302884701e-13
2.4873862713137e-13
2.3007981728875e-13
1.918121013609e-13
1.3812034876792e-13
8.2897303613183e-14
4.0700387996343e-14
1.6581664102827e-14
5.937015114295e-15
2.0264541247162e-15
7.0286149666133e-16
2.5433558505486e-16
9.6039909773232e-17
3.7462251266737e-17
1.4897411481476e-17
5.958641069755e-18
2.3677689031093e-18
9.2489424599689e-19
3.520377677667e-19
1.2966386585809e-19
4.6007320195808e-20
1.5707045672892e-20
5.1723927126006e-21
1.6516661622584e-21
5.1468503203187e-22
1.5738108454051e-22
4.7401075538694e-23
1.4091292070015e-23
4.1390050553794e-24
1.2020144412441e-24
3.4535099337671e-25
9.8228558605716e-26
2.7677840969981e-26
7.730619577611e-27
2.1415230016878e-27
5.8866220632483e-28
1.6063096523955e-28
4.3528988405404e-29
1.1718333560011e-29
3.1349470163306e-30
8.3367995410399e-31
2.2044023299552e-31
5.7971316561449e-32
1.5165845438408e-32
3.9477022374818e-33
1.0226643435621e-33
2.6370212488358e-34
6.7695760944698e-35
1.7304035295034e-35
4.404917292822e-36
1.1168502868091e-36
2.8208354014208e-37
7.0980885081723e-38
1.7796687665697e-38
4.4464322791869e-39
1.107365825786e-39
2.7441038415913e-40
6.8908734021143e-41
1.4711151444279e-41
6.8645341549447e-42
0
0
0
0
0
1.0341614257729e-36
9.6492308657429e-35
4.4787719807278e-33
1.3766149289219e-31
3.1481012973727e-30
5.7064908169095e-29
8.5392706234412e-28
1.0848873486948e-26
1.194503218796e-25
1.1591938897756e-24
1.0015893145485e-23
7.7869814389371e-23
5.4572898093253e-22
3.4297875937043e-21
1.9767436842518e-20
9.8853766868629e-20
4.419952521845e-19
2.3544424186017e-18
1.8778361618051e-17
2.2551946389138e-16
2.7336792908294e-15
2.4559910838125e-14
1.4609319792827e-13
1.1183184037627e-12
4.4935974517936e-12
1.2374033210308e-11
2.2922166998519e-11
2.3780867265738e-11
2.1318302467546e-11
1.5897057744983e-11
9.2326702190278e-12
4.2662296468484e-12
1.9557236131772e-12
1.4051386962947e-12
1.3819277874653e-12
1.3880577755125e-12
1.3757517516501e-12
1.3091032718995e-12
1.1407880155851e-12
8.6036136508229e-13
5.3801860935816e-13
2.7428671460767e-13
1.1665097020648e-13
4.4103455160679e-14
1.6028145421535e-14
5.9238483377282e-15
2.2776869191572e-15
9.1125925466987e-16
3.7566038698068e-16
1.5749056185809e-16
6.6272629769177e-17
2.7674514800998e-17
1.1359020289477e-17
4.5444004042141e-18
1.7586709626852e-18
6.5428821615302e-19
2.3321766114674e-19
7.969970753787e-20
2.6236198700052e-20
8.3790256839828e-21
2.6149271389488e-21
8.0180698329911e-22
2.423444820904e-22
7.2317200166191e-23
2.1322640159314e-23
6.2157428728818e-24
1.7925835846425e-24
5.1180381814082e-25
1.4476416686149e-25
4.0589971073524e-26
1.1287798686858e-26
3.1148443107112e-27
8.5326043145058e-28
2.3211839278335e-28
6.2729310307722e-29
1.6846213685898e-29
4.4970896162952e-30
1.1936439519929e-30
3.1509371437818e-31
8.274201096764e-32
2.1618542889973e-32
5.6211739597623e-33
1.4548170517135e-33
3.748398595121e-34
9.6163379381561e-35
2.45678107214e-35
6.251414260751e-36
1.5845420098718e-36
4.0012819724493e-37
1.0067183089178e-37
2.5244382407788e-38
6.2979270226045e-39
1.591907320787e-39
3.4219414584155e-40
1.6069349416283e-40
0
0
0
0
0
7.4762593716249e-36
6.8120208807458e-34
3.0863770038383e-32
9.2595581290544e-31
2.067250908632e-29
3.6589599682508e-28
5.3456319714047e-27
6.6280910748644e-26
7.1180434364713e-25
6.7328121747775e-24
5.6769887030594e-23
4.3180837451566e-22
2.9759932301679e-21
1.8583299187016e-20
1.064305985548e-19
5.4771741195953e-19
2.4971888224081e-18
1.078593749463e-17
5.7364503864174e-17
4.5965854968142e-16
4.6325511460669e-15
4.1906375033464e-14
2.8462585256756e-13
1.9352847327901e-12
1.123759802375e-11
8.5809729484452e-11
2.2935914961799e-10
4.5981038617723e-10
4.0977954034055e-10
2.4129940596871e-10
9.7991875760686e-11
3.2335077701519e-11
1.1897125134402e-11
6.1799858366322e-12
5.3450815837359e-12
5.4562168624474e-12
5.5810704833102e-12
5.4717355398405e-12
4.9448814660135e-12
3.858947575104e-12
2.5068290319217e-12
1.3459000753615e-12
6.1284968774039e-13
2.5042193180558e-13
9.8259642658862e-14
3.898314073329e-14
1.6010963175675e-14
6.8190864983697e-15
2.983030197942e-15
1.3229147290431e-15
5.8747421989686e-16
2.5862309470309e-16
1.1194401296695e-16
4.7274971447934e-17
1.9321793382674e-17
7.5827617086753e-18
2.8406765828807e-18
1.0140157217142e-18
3.4602009277513e-19
1.1370324017349e-19
3.6299076156072e-20
1.134427712902e-20
3.4880548297613e-21
1.0578469724322e-21
3.1679586708168e-22
9.3738809852124e-23
2.7422265821037e-23
7.9365780307042e-24
2.274181187553e-24
6.456157010464e-25
1.8169387199492e-25
5.0716496736575e-26
1.4047519175642e-26
3.862512315848e-27
1.0546839921801e-27
2.8609196059599e-28
7.7118053073701e-29
2.0663258739997e-29
5.5048989908178e-30
1.4585267079619e-30
3.8440838046382e-31
1.008037568713e-31
2.6305812310353e-32
6.8327872938353e-33
1.7668114110719e-33
4.548821095419e-34
1.1662452678612e-34
2.9780043318254e-35
7.5746853493725e-36
1.919350009569e-36
4.8465331496617e-37
1.2173860955122e-37
3.0976940997648e-38
6.704702766683e-39
3.1695109007113e-39
0
0
0
0
0
4.3405153080383e-35
3.8993632140231e-33
1.7400025213844e-31
5.1365340585191e-30
1.1277302557551e-28
1.9621278603679e-27
2.8160456758977e-26
3.4270227015272e-25
3.6081973744617e-24
3.3401933828853e-23
2.7533308150622e-22
2.045335739637e-21
1.3793288319453e-20
8.4812405156014e-20
4.7891362008076e-19
2.4754801626449e-18
1.1601195168862e-17
4.889202789163e-17
2.0232728456565e-16
9.8823813647416e-16
6.4903209888056e-15
4.5427745191262e-14
3.0117993036913e-13
1.8966471028391e-12
1.1603206311273e-11
7.3542085858773e-11
6.0133672864869e-10
2.6929582580716e-09
2.8326561379188e-09
1.9642871220365e-09
9.2510168919338e-10
3.3501636902007e-10
1.2887731708595e-10
6.0620299213739e-11
3.3968564915504e-11
2.2485164029501e-11
1.7980988716458e-11
1.5834333547538e-11
1.3766800340799e-11
1.1047597045712e-11
7.7593601585436e-12
4.6289159725207e-12
2.3580776210165e-12
1.0711053796593e-12
4.6202383826027e-13
1.9957465886906e-13
8.8602964274746e-14
4.0536852686186e-14
1.8938895135709e-14
8.9275705194255e-15
4.2013629512469e-15
1.9580261554518e-15
8.9773052168426e-16
4.0212836386438e-16
1.7452110242136e-16
7.2699775490771e-17
2.8824788344033e-17
1.0825780419315e-17
3.8546663524244e-18
1.3098892902681e-18
4.2914303108003e-19
1.369206273715e-19
4.2858645187535e-20
1.3215353659852e-20
4.0210925884515e-21
1.2082095483738e-21
3.5867870116032e-22
1.0527342533114e-22
3.0570887132975e-23
8.7901380972858e-24
2.504210576804e-24
7.0726753774368e-25
1.9813089453374e-25
5.5076968055945e-26
1.5198913229479e-26
4.1652374854178e-27
1.1339613758926e-27
3.0677676912429e-28
8.2496602778673e-29
2.2057341196345e-29
5.8651534205241e-30
1.5513605563887e-30
4.0826720136129e-31
1.0692018542683e-31
2.7870060534912e-32
7.2319198983577e-33
1.8684294264817e-33
4.8069853908809e-34
1.2316993146834e-34
3.1435615412681e-35
7.9940055720038e-36
2.0219438520086e-36
5.1798202413914e-37
1.1288885110432e-37
5.3736932225774e-38
0
0
0
1.296264889428e-63
6.2941661212791e-49
2.0817100508917e-34
1.8558707214626e-32
8.2077174362393e-31
2.3985350341241e-29
5.2075048806541e-28
8.9523126685135e-27
1.2682612518797e-25
1.5219307216779e-24
1.57823391946e-23
1.436272108713e-22
1.1616070791516e-21
8.4421493514529e-21
5.5632904558563e-20
3.3455152119626e-19
1.8497672959802e-18
9.4347833987715e-18
4.4400183946827e-17
1.9051336322382e-16
7.5083935769108e-16
2.8663443621854e-15
1.1618941847613e-14
5.5118881671511e-14
2.8977917728168e-13
1.487834421139e-12
9.2911067102665e-12
4.6390684300113e-11
3.48928842576e-10
1.3110114843147e-09
8.4055724261335e-09
1.997863334808e-08
1.4432889231729e-08
7.9878902940653e-09
4.4677511300697e-09
2.2471208297283e-09
8.5025790222161e-10
2.0519192235611e-10
5.0068135341197e-11
3.1338904143574e-11
2.6336768411328e-11
2.1535521754016e-11
1.6077739995565e-11
1.06649944368e-11
6.212469644748e-12
3.2546951853771e-12
1.6068318705019e-12
7.8130962474107e-13
3.8362516176867e-13
1.9126740181257e-13
9.6325990041356e-14
4.8597931805909e-14
2.438314041336e-14
1.2099294517311e-14
5.9090089634973e-15
2.8231947221956e-15
1.3085657478547e-15
5.822480493087e-16
2.4603686729151e-16
9.7948743001375e-17
3.6656063676637e-17
1.2960234894263e-17
4.3759134654992e-18
1.4287989388267e-18
4.5583359728222e-19
1.4298479849291e-19
4.4221699573112e-20
1.3497985980391e-20
4.0682098410093e-21
1.2114149858074e-21
3.5666680819764e-22
1.0390985328323e-22
2.9977370718212e-23
8.5693956395143e-24
2.4286562407607e-24
6.8273452772475e-25
1.9045706927534e-25
5.2744118324773e-26
1.4505748448461e-26
3.9631420735579e-27
1.0759819271529e-27
2.9037426942856e-28
7.7913337639484e-29
2.0790764571158e-29
5.5186282235281e-30
1.4574183763994e-30
3.8301357381747e-31
1.0018434458136e-31
2.6086471771932e-32
6.7628540990004e-33
1.7458630223849e-33
4.4885763987421e-34
1.1496566004236e-34
2.9283948131863e-35
7.553730453492e-36
1.6577166068872e-36
7.9481324728512e-37
0
0
0
8.6619460414702e-62
2.5850189643057e-47
8.4004758230309e-34
7.4691284584722e-32
3.2899072404616e-30
9.5639204120772e-29
2.0629156691811e-27
3.5190699301883e-26
4.9416938281162e-25
5.8719767184024e-24
6.0226722300386e-23
5.4123373835095e-22
4.314371671752e-21
3.0811372299532e-20
1.9895260441984e-19
1.1692608072393e-18
6.3052300212799e-18
3.1370808207297e-17
1.4505895420761e-16
6.21180963028e-16
2.4561405780185e-15
9.0042356719389e-15
3.0627161830692e-14
1.0326836759189e-13
3.6861330249963e-13
1.4512320187173e-12
5.406934913435e-12
1.863577752569e-11
9.1488784004732e-11
3.3843011891701e-10
3.5203684166848e-09
3.3991004752261e-08
1.2026881647092e-07
3.5036969396709e-07
2.7196633834646e-07
1.1423993911946e-07
2.5977133933616e-08
2.9770893231676e-09
3.4260715093219e-10
1.0490597073287e-10
5.6906076642811e-11
3.5854040461821e-11
2.3736859184815e-11
1.616556679741e-11
1.0628283979376e-11
6.6460883000702e-12
3.9512800923554e-12
2.2642190121409e-12
1.2718694566458e-12
7.0700788166218e-13
3.8985062626214e-13
2.1295122705107e-13
1.1498050075312e-13
6.1238657853259e-14
3.2085421608823e-14
1.6457626194995e-14
8.1972482917376e-15
3.9200465520037e-15
1.7770437748662e-15
7.5526614377859e-16
2.9927174010506e-16
1.1083963843462e-16
3.8773740101705e-17
1.3000719209602e-17
4.23535103068e-18
1.3528288378606e-18
4.2553311310106e-19
1.3201645611388e-19
4.0416631580179e-20
1.2216704938588e-20
3.6485828668408e-21
1.077530547303e-21
3.1493138675939e-22
9.1156640510005e-23
2.6146273985459e-23
7.4355033119554e-24
2.0974671629304e-24
5.871511485399e-25
1.6317133020206e-25
4.5033089121083e-26
1.2346829148507e-26
3.3639179727148e-27
9.1100746857978e-28
2.4529934261313e-28
6.5685880862083e-29
1.7496248927399e-29
4.6366544244891e-30
1.2227426804984e-30
3.2093298981026e-31
8.3852502449122e-32
2.1812732329826e-32
5.6500561757016e-33
1.4577733134623e-33
3.7399555340053e-34
9.7150162788432e-35
2.1469954072412e-35
1.0371683382228e-35
0
0
0
7.5712732376584e-62
1.3720512879142e-47
2.8838855676518e-33
2.5680825186459e-31
1.1311506174954e-29
3.2847319121356e-28
7.0674936240776e-27
1.2009468278573e-25
1.6780544650665e-24
1.9819761188316e-23
2.018424687448e-22
1.7987925365335e-21
1.4197465210837e-20
1.0016834215002e-19
6.3718376667588e-19
3.6772326127507e-18
1.9387733395667e-17
9.3958593090957e-17
4.2200715058451e-16
1.7635397338604e-15
6.8721177595233e-15
2.4937857236285e-14
8.3975158855147e-14
2.6347154819652e-13
8.1093242362896e-13
2.3138602048326e-12
6.3384037821065e-12
1.4832840523651e-11
2.641696687785e-11
1.1290537028522e-10
1.0055904659514e-09
1.7506709299009e-08
5.1118833590821e-07
2.4848793954544e-06
2.4119794058102e-06
1.4519797384154e-06
5.6431712176523e-07
1.3028113870749e-07
2.3829751315928e-08
4.5928187024503e-09
8.8423228945442e-10
1.6121786609782e-10
3.5501637760162e-11
1.7541288646096e-11
1.2833968092489e-11
9.6619533678929e-12
6.8999319512344e-12
4.7397301634098e-12
3.1396093750721e-12
2.0028366855023e-12
1.2378460818891e-12
7.4541660598077e-13
4.3926191070701e-13
2.5395132053652e-13
1.4407468970904e-13
7.9958203342454e-14
4.3085176900978e-14
2.2279987333779e-14
1.0900705320527e-14
4.9778195079074e-15
2.1028657267873e-15
8.2149730091205e-16
2.9956074046922e-16
1.0361719033011e-16
3.457187738761e-17
1.1264137536267e-17
3.6073480654226e-18
1.138343346821e-18
3.542373343068e-19
1.0876127700858e-19
3.296984827435e-20
9.876192751946e-21
2.9259094144239e-21