/*--------------------------------*- C++ -*----------------------------------*\
  =========                 |
  \\      /  F ield         | OpenFOAM: The Open Source CFD Toolbox
   \\    /   O peration     | Website:  https://openfoam.org
    \\  /    A nd           | Version:  7
     \\/     M anipulation  |
\*---------------------------------------------------------------------------*/
FoamFile
{
    version     2.0;
    format      ascii;
    class       surfaceScalarField;
    location    "1.9";
    object      alphaPhi0.water;
}
// * * * * * * * * * * * * * * * * * * * * * * * * * * * * * * * * * * * * * //

dimensions      [0 3 -1 0 0 0 0];

internalField   nonuniform List<scalar> 
11840
(
0
0
0
0
0
0
0
0
0
0
0
0
0
0
0
0
0
0
0
0
0
0
0
0
0
0
0
0
0
0
0
0
0
0
0
0
0
0
0
0
0
0
0
0
0
0
0
0
0
0
0
0
0
0
0
0
0
0
0
0
0
0
0
0
0
0
0
0
0
0
0
0
0
0
0
0
0
0
0
0
0
0
0
0
0
0
0
0
0
0
0
0
0
0
0
0
0
0
0
0
0
0
0
0
0
0
0
0
0
0
0
0
0
0
0
0
0
0
0
0
0
0
0
0
0
0
0
0
0
0
0
0
0
0
0
0
0
0
0
0
0
0
0
0
0
0
0
0
0
0
0
0
0
0
0
0
0
0
0
0
0
0
0
0
0
0
0
0
0
0
0
0
0
0
0
0
0
0
0
0
0
0
0
0
0
0
0
0
0
0
0
0
0
0
0
0
0
0
0
0
0
0
0
0
0
0
0
0
0
0
0
0
0
0
0
0
0
0
0
0
0
0
0
0
0
0
0
0
0
0
0
0
0
0
0
0
0
1.1596210356337e-202
-3.4618669337144e-210
1.3788384094367e-202
6.8941920471836e-203
1.8108737024621e-202
8.7623324024348e-203
3.2949593613041e-203
1.481582525444e-202
5.9908352023711e-204
2.695875841067e-203
2.279589678521e-203
0
4.9844493019409e-203
0
9.062635094438e-204
4.0781857924971e-203
1.6477518353524e-204
7.4148832590856e-204
2.9959124279134e-205
1.348160592561e-204
4.9412935651311e-205
0
6.204909345458e-205
0
1.1281653355378e-205
5.0767440099202e-205
8.0652587567448e-206
4.0326293783724e-206
7.7926805771521e-206
0
6.6640115330572e-206
0
5.171234432388e-206
0
9.4022444225236e-207
4.2310099901356e-206
1.7094989859134e-207
7.6927454366102e-207
2.6391501792906e-207
0
2.86816824037e-207
0
5.2148513461283e-208
2.3466831057575e-207
5.309435432546e-208
0
9.6535189682993e-209
4.3440835357259e-208
6.9399727547577e-209
3.4699863773789e-209
1.2618132282684e-209
5.678159526874e-209
1.3997921188281e-209
0
1.1502634025025e-209
0
2.0913880261222e-210
9.4112460656096e-210
1.5292669178632e-210
0
2.7804860193065e-211
1.251218542958e-210
1.9845853702981e-211
0
1.2608061394881e-211
0
2.2924441829625e-212
1.0315832232912e-211
1.3660144911299e-212
0
2.4861679062563e-213
1.1181975712863e-212
4.5629656810124e-214
2.0440014296791e-213
3.6899821679949e-214
0
9.2009270459584e-215
3.7001814268555e-214
7.9587114905492e-215
0
3.5091140971807e-215
4.8250318836234e-215
1.7258007133042e-215
0
6.6047795630252e-216
3.3271370810507e-216
2.3420707180411e-216
1.1710353590205e-216
7.916096722651e-217
3.9656999293363e-217
2.5868338260023e-217
1.2934169130011e-217
8.2388143920158e-218
4.1194071960079e-218
2.5736180061414e-218
1.2868113592879e-218
7.9130807181242e-219
3.9565403590621e-219
2.606995745508e-219
0
7.774433720966e-220
3.887216860483e-220
2.47355764706e-220
0
7.1794455425959e-221
3.5897227868104e-221
2.2156358936927e-221
0
6.2818051276034e-222
3.1409025642992e-222
1.7646850103627e-222
8.8234250518133e-223
4.9168577699717e-223
2.4584288850266e-223
1.4506252688084e-223
0
4.2146279151118e-224
1.0587989243582e-226
1.1405470063214e-224
5.7027350316069e-225
3.1643159360471e-225
6.565396733224e-227
8.4143389237768e-226
4.2071694618884e-226
2.2372823313904e-226
9.3271244955038e-227
5.9187435008666e-227
2.9593717504333e-227
1.563192960893e-227
7.7552357043094e-228
4.1207414591607e-228
2.0565485041987e-228
1.0841879259106e-228
5.4209396295532e-229
2.8466869621751e-229
1.4232001858459e-229
7.4575176997915e-230
3.7287588498958e-230
1.9488649730671e-230
9.7442840427254e-231
5.0794858252853e-231
2.5397429126427e-231
1.3201858120785e-231
6.6009290603923e-232
3.4210982779581e-232
1.710549072762e-232
8.8381408298629e-233
4.4190704149315e-233
2.2760532083219e-233
1.1380266023791e-233
5.8425437676546e-234
2.9212718838273e-234
1.4948619624307e-234
7.4743098115876e-235
3.8121458028869e-235
1.906072901412e-235
9.6895574200897e-236
4.8447787100449e-236
2.4547481166053e-236
1.2273740583018e-236
4.1401621882879e-237
0
0
0
0
0
0
0
0
0
0
0
0
0
0
0
0
0
0
0
0
0
0
0
0
0
0
0
0
0
0
0
0
0
0
0
0
0
0
2.5743795605931e-141
1.2871897802966e-141
4.7208936884009e-138
2.3604468442004e-138
4.3288552991175e-138
4.392062022839e-139
0
5.3764710166939e-137
4.1286675762959e-117
0
3.5245168777744e-117
2.107202598298e-117
1.0375815925128e-117
0
4.2791675261983e-118
0
9.9638542089173e-120
4.1795289841091e-118
9.9562781541848e-120
0
4.1295093383999e-120
0
7.8473940544276e-121
0
4.0475186798358e-121
0
1.2173946060661e-122
3.9257792192292e-121
9.4810998745774e-123
0
3.3673769126957e-123
0
4.296371428851e-124
0
2.5497745656858e-124
0
7.3949302229371e-126
2.4758252634564e-124
3.5388002669027e-126
0
2.6756787108101e-127
0
2.6726173624477e-127
0
1.9468932992332e-128
0
1.9453253173882e-128
0
3.4234293574792e-130
1.9110910238134e-128
1.806763170856e-130
0
8.9756953305964e-131
0
4.1383734291921e-132
0
1.3977616939305e-132
0
3.65925354049e-133
0
6.521795489872e-134
0
3.528190453254e-134
0
1.5490698413888e-135
0
4.5668331601275e-136
0
2.947418613194e-136
0
1.0457167427502e-136
0
1.1844922290359e-137
9.2726751984664e-137
4.4191995555528e-138
0
1.3763011892945e-139
4.2815694366234e-138
1.3750736677185e-139
0
2.8325408924519e-141
1.346748258794e-139
2.8284826119952e-141
0
1.0496909672938e-141
0
4.2424757828756e-143
1.0072662094651e-141
3.3473247743828e-143
0
6.0860450443324e-144
2.7387202699496e-143
6.8754337766356e-145
5.3985016666689e-144
2.537414754795e-145
0
7.902520479179e-147
2.4583895500033e-145
7.8953494341352e-147
0
1.4364886463675e-148
7.7517005694984e-147
6.9852926377229e-149
0
3.3698888482395e-149
0
2.1671853109792e-150
0
2.1651943971245e-150
0
3.9367170856809e-151
1.7715226885564e-150
1.1256387964678e-152
3.8241532060341e-151
2.4989567594413e-153
0
2.5056290601494e-153
0
1.2868337069839e-154
2.376945689451e-153
9.5757349505644e-155
0
1.6666181989303e-155
7.9091167516341e-155
4.2826004245104e-156
0
7.6753341899089e-157
3.5150670055195e-156
1.8645197070381e-157
0
4.4281197133509e-158
0
1.0380497623471e-158
0
2.4029091426587e-159
0
4.3689089676763e-160
1.9660182458911e-159
9.9986769872146e-161
0
2.2647497111817e-161
0
4.1177267046964e-162
1.8529770407121e-161
9.2390373159273e-163
0
1.6798249614036e-163
7.5592123545237e-163
3.7369244595475e-164
0
8.2482019468208e-165
0
1.8074282283279e-165
0
3.9340981615458e-166
0
7.152905748261e-167
3.2188075867197e-166
1.5618033038744e-167
0
0
0
0
0
0
0
0
0
0
0
0
0
0
0
0
0
0
0
0
0
0
0
0
0
0
0
0
0
0
0
0
0
0
0
0
-1.2624320630806e-80
-6.3121603154031e-81
-1.0787993209254e-79
-5.3939966046268e-80
-4.2692781541703e-79
-2.1346390770851e-79
-1.0739666462261e-78
-5.3698332311303e-79
-1.9697305600843e-78
-9.8486528004217e-79
-2.8472121081967e-78
-1.4236060540983e-78
5.6100647559542e-64
3.2204891732456e-64
9.2299818634401e-65
6.6451029192396e-64
3.8570567726377e-63
1.9446922743316e-63
2.3789466198226e-62
1.5958630976234e-62
1.4451970110562e-61
9.9847793960214e-62
6.0936957690116e-61
4.1742629757174e-61
4.5148077316489e-60
2.8989491650305e-60
9.087107391058e-58
4.8466145927811e-58
6.9448846865828e-57
4.6606620236206e-57
3.8139895188958e-56
2.5213647981358e-56
4.6084267127079e-55
2.6764115901158e-55
1.9726093407714e-54
1.3390502274084e-54
1.4470947485837e-53
8.609196135127e-54
5.7368857787978e-53
4.0921607064241e-53
1.9871883928228e-52
1.4156113700621e-52
8.4003345943488e-52
5.5993751965823e-52
2.3382499972576e-51
1.739027333128e-51
7.0015315677873e-51
5.2792545577949e-51
1.7429270561174e-50
1.3739054028787e-50
3.3085959511241e-50
2.7741528323226e-50
5.3726978030347e-50
4.5372934839154e-50
9.898504992467e-50
7.648716305159e-50
1.7706880003162e-49
1.4347265126809e-49
3.4039183308958e-49
2.4382565128525e-49
9.3599998981676e-49
5.3327212074724e-49
9.5836753007199e-49
9.489754014621e-49
9.1868434376016e-49
9.3349567600879e-49
8.130020211839e-49
9.0418800904885e-49
6.9561867794009e-49
7.0835087076493e-49
6.5083116849925e-49
6.2790142113219e-49
4.7397882238266e-49
5.5004892583503e-49
2.3643985317728e-49
3.3701076157468e-49
6.1746997637688e-50
1.3329567253556e-49
1.0580132740193e-50
3.062835674874e-50
1.5750044402639e-51
7.5606785725389e-51
3.8801144806479e-52
1.0070340058668e-51
6.333962388794e-53
3.1056844812819e-52
1.1912118759898e-53
4.9135921652969e-53
2.9807855569606e-54
7.7211750198812e-54
4.7695825737307e-55
2.4001163030184e-54
1.2282643770254e-55
3.0710243774234e-55
2.2688975520201e-56
9.5917233441598e-56
3.6269640870809e-57
1.8364258949862e-56
9.0978020075552e-58
2.3509884222923e-57
1.4474460277459e-58
7.3322065232361e-58
3.7335814862965e-59
9.3108614592263e-59
6.8960217193726e-60
2.9142389734939e-59
1.1092796327093e-60
5.5726855048308e-60
2.5928514825873e-61
7.2727399084786e-61
5.0087344135424e-62
1.9000203482147e-61
1.2420585667638e-62
3.1656937141629e-62
2.2852684751155e-63
9.6694112384593e-63
3.6070341449138e-64
1.8506226551226e-63
9.3637921655267e-65
2.3164089175714e-64
1.7496104126758e-65
7.2797664909874e-65
3.3454996694774e-66
1.3749103615755e-65
6.1754436833356e-67
2.6240022822839e-66
9.4041847276549e-68
5.0306886320336e-67
1.9017747561116e-68
7.1223039135369e-68
4.6000952512871e-69
1.232628842161e-68
1.0789878698931e-69
2.8604325524447e-69
2.4373377001999e-70
6.5966457997036e-70
5.5418330731173e-71
1.4652574694871e-70
1.0141059980546e-71
4.2736316987252e-71
1.595867213738e-72
8.1812803789042e-72
3.7829637232825e-73
1.0330912611634e-72
8.7394449984926e-74
2.3400183954237e-73
1.3116025194972e-74
7.0318123784676e-74
2.617852357781e-75
9.89117411435e-75
6.1958732777904e-76
1.6901882225324e-75
1.3789687847446e-76
3.8519362229693e-76
2.7338201536699e-77
9.2966836218146e-77
6.3909517089287e-78
1.6881810941249e-77
1.0024403400984e-78
5.1016165648846e-78
2.2856691343214e-79
6.4660639032566e-79
5.9355922539819e-80
1.3784530193058e-79
4.4985622794358e-80
0
0
0
0
0
0
0
0
0
0
0
0
0
0
0
0
0
0
8.3401072134532e-53
4.2062112600718e-53
4.1389667663283e-51
2.2263294796096e-51
3.4998616086281e-50
1.9043448559407e-50
6.6907401036734e-49
3.5836429232916e-49
6.910337030747e-48
4.1241828582607e-48
1.6396574656236e-47
1.6626734708542e-47
1.4086862584544e-47
1.4231937528299e-47
5.1545485796477e-48
8.9323140048959e-48
3.8032886249762e-46
3.2229864679471e-46
6.8152451930846e-47
3.1217641034028e-46
1.2572854465341e-47
5.5579597465505e-47
2.2859703544458e-48
1.0286884110895e-47
4.1587109837218e-49
1.8700992560737e-48
1.4109714531236e-46
0
2.5654206743848e-47
1.1544293856851e-46
4.6644011019013e-48
2.0989805641947e-47
8.480729494012e-49
3.8163281525001e-48
1.5419508185172e-49
6.9387786754952e-49
2.8035469428508e-50
1.2615961242348e-49
5.0973580782629e-51
2.2938111351364e-50
9.2679238090157e-52
4.170565705372e-51
2.2624060225721e-48
0
4.1134655507688e-49
1.8510594841002e-48
7.4790303827569e-50
3.3655631998429e-49
7.6931498485428e-48
0
1.3987798628632e-48
6.2943744959689e-48
1.6303595287511e-43
0
1.6304893613289e-43
0
5.9536059500607e-45
1.5709533063798e-43
6.0788967003011e-45
0
1.1052558832598e-45
4.9736460983714e-45
2.1404091418666e-46
9.6317271136245e-46
7.2319310247916e-47
3.2540572577426e-46
1.3178639977119e-47
5.9234713709922e-47
1.2421496688879e-48
1.2044903227248e-47
6.3860772233408e-48
0
2.0799370248713e-48
4.8410047944299e-48
1.4511630953645e-48
5.6482319605125e-48
1.1395174393317e-48
2.9958132390445e-48
4.947068287182e-47
0
3.4356527441703e-46
0
3.8883449639175e-47
3.0620502462203e-46
9.6649104394364e-48
0
1.0919447351749e-47
0
5.654671672357e-48
0
6.0399180660027e-48
0
1.0837437050249e-48
5.0598886628028e-48
8.5682308308446e-49
0
1.3244323056684e-49
7.2938880914731e-49
9.93921553764e-50
0
2.5568826563271e-51
9.7059796231355e-50
2.5898888056016e-51
0
1.8089287805035e-51
0
2.6590664390663e-52
1.5447559782083e-51
1.7939840586109e-52
0
3.266303287283e-53
1.4680433909491e-52
4.7134053001856e-54
2.7962932725539e-53
3.0940727550607e-54
0
4.3340568191331e-55
2.6611925096638e-54
2.8715958939685e-55
0
9.7679360422645e-57
2.7741242507845e-55
9.7719390699874e-57
0
1.3371014332809e-57
0
1.3367017556883e-57
0
8.4410058198274e-58
0
1.4444883905149e-58
6.9965852420787e-58
2.6264349683812e-59
1.181858017733e-58
4.4857506068347e-60
0
4.4843635551705e-60
0
1.483343208656e-61
4.3360389872712e-60
1.4828863370338e-61
0
5.96511207522e-63
1.4232387624419e-61
5.4959529366397e-63
0
1.3531677094999e-63
0
4.942957813424e-64
0
4.2165077028007e-64
0
6.5152612297705e-65
0
6.513041208473e-65
0
1.2311213605103e-66
6.3899296256701e-65
8.6752994853161e-67
0
6.3938919252773e-67
0
2.5484721178518e-68
6.1390451755458e-67
2.334928801451e-68
0
5.9348150164161e-69
0
2.3765994527075e-69
0
2.2329182322062e-69
0
3.5573106604512e-70
0
3.5561696788706e-70
0
4.2825807839053e-71
0
3.4832962799248e-71
0
0
0
0
0
0
0
0
0
0
0
0
0
0
0
0
2.4788167738129e-43
1.2412705670638e-43
2.0685421047165e-41
1.0459122639668e-41
8.4244777853213e-40
4.307578028084e-40
2.2269930029539e-38
1.1526575082212e-38
4.3150756071121e-37
2.262520289356e-37
6.5202461152474e-36
3.4676845153819e-36
7.8825421348781e-35
4.2600499291636e-35
7.7754070808511e-34
4.2718898190204e-34
6.5631158197323e-33
3.6516350965148e-33
5.1167873189008e-32
2.863348428002e-32
3.9030776789337e-31
2.1873976389527e-31
2.9185616031485e-30
1.6403025325068e-30
2.0706814322925e-29
1.172410146679e-29
1.3496276615978e-28
7.7332848397556e-29
7.9182969758351e-28
4.6085353369083e-28
4.1416012419482e-27
2.4554157294196e-27
1.9257191436677e-26
1.1655534972794e-26
7.9657100230056e-26
4.9306489373926e-26
2.9381240074461e-25
1.8626329487088e-25
9.6923183592532e-25
6.3011632926938e-25
2.8692751393088e-24
1.9150617099943e-24
7.6523009076309e-24
5.2480326936246e-24
1.8470842326757e-23
1.3022996831736e-23
4.0574354730667e-23
2.9412430791234e-23
8.1631983356322e-23
6.081883216526e-23
1.5144436117178e-22
1.1589249311356e-22
2.6065308819409e-22
2.0477896121414e-22
4.1763327494557e-22
3.3703655259497e-22
6.2118035123363e-22
5.1683128799818e-22
8.4209504468076e-22
7.3130420431754e-22
9.9702618465091e-22
9.2575728229305e-22
1.0305059378216e-21
1.0146473097468e-21
1.031132703702e-21
1.0206747566035e-21
9.8628076530212e-22
9.9531327602041e-22
8.7882998880752e-22
9.1967800991975e-22
6.9867635110154e-22
7.7545401888859e-22
4.7827369596494e-22
5.7639900088212e-22
2.7069396074205e-22
3.6420798405959e-22
1.2220479148515e-22
1.8880451184305e-22
4.3671641506762e-23
7.8580107413901e-23
1.2996458428582e-23
2.6681185518058e-23
3.5560025131535e-24
7.8867179155687e-24
9.7363842514185e-25
2.2065207823577e-24
2.7589101308461e-25
6.1898745944671e-25
8.0972064889446e-26
1.7803872470671e-25
2.4439674822028e-26
5.266398133272e-26
7.540061333018e-27
1.5972198237838e-26
2.3641306047489e-27
4.9438321497848e-27
7.4783857768519e-28
1.5521468489097e-27
2.3660469280273e-28
4.9040807515555e-28
7.4260615962226e-29
1.5462188559528e-28
2.2985981616307e-29
4.8297279620895e-29
6.9976020875888e-30
1.4875111554747e-29
2.0950858425916e-30
4.5087282670656e-30
6.1782809460253e-31
1.3452727027308e-30
1.797833443315e-31
3.9564980158621e-31
5.1702388304966e-32
1.1487492239373e-31
1.4709818903497e-32
3.2969213534873e-32
4.143316691837e-33
9.3619555478307e-33
1.1560458433695e-33
2.6320872823124e-33
3.1967837375765e-34
7.3309591988999e-34
8.7656589065404e-35
2.0238603231163e-34
2.3845276598414e-35
5.5409141595263e-35
6.4381936117931e-36
1.5051232619077e-35
1.7260288256522e-36
4.0582989885717e-36
4.5963737671231e-37
1.0866035368859e-36
1.2162202870046e-37
2.8900872568968e-37
3.1986963851334e-38
7.6384896403305e-38
8.3641438618538e-39
2.0067484576089e-38
2.1750644157851e-39
5.2419055829036e-39
5.6264029905817e-40
1.3617861703722e-39
1.4480908978494e-40
3.5193009170014e-40
3.7090125878751e-41
9.0495789815779e-41
9.4559075083888e-42
2.3158730483219e-41
2.3999919840719e-42
5.8992836694148e-42
6.0652975772088e-43
1.4960983647736e-42
1.5265096638256e-43
3.7780740511941e-43
3.8266364930489e-44
9.5016434317134e-44
9.5557817395734e-45
2.3801767893375e-44
2.3774103655816e-45
5.9396704327017e-45
5.8936623092834e-46
1.476777303107e-45
1.4559977887385e-46
3.6586496811279e-46
3.5849157195043e-47
9.0329673231591e-47
8.7980364371576e-48
2.2227556152699e-47
2.1524076335526e-48
5.4519263553136e-48
5.2497249342702e-49
1.3330552317908e-48
1.2766145060697e-49
3.2495810838372e-49
3.0955836577699e-50
7.8980964445379e-50
7.4836521806312e-51
1.9142921477198e-50
1.8080991736057e-51
4.6233371464375e-51
4.2693636954002e-52
1.1216511254574e-51
1.2019709908637e-52
2.5273175106094e-52
9.5194966893669e-53
0
0
0
0
0
0
0
0
0
0
0
0
2.2596768301153e-43
1.1269170479149e-43
2.7802372128144e-41
1.3862372847248e-41
1.5338390379769e-39
7.6835373333722e-40
5.2700860026326e-38
2.6597358971169e-38
1.2863512729587e-36
6.5533026624927e-37
2.4049100352253e-35
1.2385331905327e-35
3.5970647147865e-34
1.87564962044e-34
4.3980598580732e-33
2.3260489227411e-33
4.4801007229076e-32
2.4069221089944e-32
3.8704385782495e-31
2.1143298248692e-31
2.8826492436947e-30
1.5974489714982e-30
1.9589860383836e-29
1.0920841662623e-29
1.3160779203522e-28
7.3214863500096e-29
8.8461810388998e-28
4.9182808538929e-28
5.6724576986913e-27
3.1798815537985e-27
3.3676451109256e-26
1.9140854691283e-26
1.8243076776104e-25
1.0541927243074e-25
8.9031405261138e-25
5.2468172464037e-25
3.8743872002164e-24
2.3362640957865e-24
1.4941264350743e-23
9.245879810809e-24
5.0931042941097e-23
3.2421704231226e-23
1.5349311043337e-22
1.0070364193682e-22
4.1013628686704e-22
2.7763894761839e-22
9.7733598681459e-22
6.8266346692634e-22
2.0966554355198e-21
1.5089894598617e-21
4.1004196609848e-21
3.0323903901122e-21
7.410191147394e-21
5.6127568148783e-21
1.2512098689511e-20
9.6848386017915e-21
1.9844177466986e-20
1.5700932510975e-20
2.9467229589402e-20
2.393720599995e-20
4.0227974186849e-20
3.3977402974822e-20
4.8394964867188e-20
4.3560981274493e-20
5.0612046382954e-20
4.8547381159245e-20
5.0677602041137e-20
4.9106040681262e-20
4.8852789648533e-20
4.8114233872416e-20
4.4062390238676e-20
4.4888016624617e-20
3.5634422570556e-20
3.8400722263305e-20
2.4966328621411e-20
2.911327462418e-20
1.4582950180078e-20
1.8888415723993e-20
6.8686355151611e-21
1.0144008067749e-20
2.5868125537385e-21
4.4174461168014e-21
8.1332100220396e-22
1.5797537835624e-21
2.3342141638212e-22
4.912545858177e-22
6.6442041762378e-23
1.4362524343281e-22
1.9503629456669e-23
4.1871397470239e-23
5.9393853040432e-24
1.2501018424343e-23
1.8669126672597e-24
3.8463145821628e-24
6.0173149125446e-25
1.2171545771981e-24
1.9736591188976e-25
3.9398776518508e-25
6.5257242883312e-26
1.2941906066722e-25
2.1525670488651e-26
4.2722280720855e-26
7.018130855994e-27
1.4032911273363e-26
2.2472891576818e-27
4.5493367472815e-27
7.0480773019506e-28
1.4482803746659e-27
2.16562541759e-28
4.5192113343241e-28
6.5327182843371e-29
1.3830949871491e-28
1.9395687242665e-29
4.1596681271326e-29
5.6802128717381e-30
1.232072816766e-29
1.6434193491781e-30
3.6007747307752e-30
4.7022647404675e-31
1.0397653060828e-30
1.3315668161131e-31
2.9694847939562e-31
3.7341081660902e-32
8.3938302112771e-32
1.0376086102398e-32
2.3499203991506e-32
2.8585561179589e-33
6.5195644867702e-33
7.8118375495008e-34
1.7934837798127e-33
2.1186456564641e-34
4.8945276754635e-34
5.7048722030003e-35
1.3257397651136e-34
1.5257425334823e-35
3.5654928567215e-35
4.0542860064861e-36
9.5248243148648e-36
1.0707366320337e-36
2.5282397239654e-36
2.8113336101076e-37
6.6701977756061e-37
7.3404038429148e-38
1.7496159983154e-37
1.9063948550634e-38
4.5639931278563e-38
4.9259565803839e-39
1.1842716694838e-38
1.2666173386119e-39
3.0574537287343e-39
3.2416286825471e-40
7.8552804172921e-40
8.2589367137629e-41
2.0088220682731e-40
2.0950906706968e-41
5.1142063730761e-41
5.2926029391867e-42
1.2964204648854e-41
1.3316473930529e-42
3.2727550797604e-42
3.3375229664762e-43
8.2289797662267e-43
8.3335947773088e-44
2.0611248150841e-43
2.0733291489641e-44
5.1433462287251e-44
5.1402409009198e-45
1.2788643160356e-44
1.2700674670318e-45
3.1687754310046e-45
3.1278385884708e-46
7.8251918537689e-46
7.6785627012403e-47
1.9261082709386e-46
1.8792038946164e-47
4.7259842524958e-47
4.5853956152615e-48
1.1560238871656e-47
1.1153704775472e-48
2.8195613935585e-48
2.7111648618419e-49
6.8518489754424e-49
6.4392955450618e-50
1.672471519095e-49
1.824872085705e-50
3.7893790182187e-50
1.4389818280923e-50
0
0
0
0
0
0
0
0
0
0
1.0092497097281e-43
5.0022365129498e-44
1.7011999643576e-41
8.3959263508265e-42
1.2144884851201e-39
5.9933352371044e-40
5.1884779037794e-38
2.5682124482982e-38
1.5416574822997e-36
7.6713388904776e-37
3.454596912412e-35
1.7312740783177e-35
6.1447250798326e-34
3.1062242058946e-34
8.9601291569004e-33
4.5765011178816e-33
1.0903864532738e-31
5.6369226820135e-32
1.1265299280055e-30
5.9056750212141e-31
9.952113162066e-30
5.3007421585339e-30
7.5737951049398e-29
4.1026976634421e-29
5.0658204386831e-28
2.7877374570067e-28
3.0584256763149e-27
1.693380496165e-27
1.844988703824e-26
1.0109119143096e-26
1.2327528016519e-25
6.6706065940766e-26
8.067548247627e-25
4.4181065962642e-25
4.6945944252792e-24
2.6520356903563e-24
2.4426971014107e-23
1.4189773230658e-23
1.1426895214586e-22
6.8013623889376e-23
4.750837643827e-22
2.9034909970411e-22
1.7288543226876e-21
1.0895881938985e-21
5.436728608482e-21
3.5510929291029e-21
1.4648428036674e-20
9.9652736715126e-21
3.3718845184499e-20
2.3981210839249e-20
6.6778275679494e-20
4.9653829492131e-20
1.1636689859846e-19
8.9869593150642e-20
1.8496155801894e-19
1.4649633015762e-19
2.7909573738406e-19
2.235291343445e-19
4.119626218858e-19
3.3041253068918e-19
5.9892951724097e-19
4.8101266960547e-19
8.374676233888e-19
6.8305599825953e-19
1.0637486827373e-18
9.0996996666307e-19
1.1615305824285e-18
1.0693956363888e-18
1.1681317200745e-18
1.105658235723e-18
1.1422588268653e-18
1.0926152315799e-18
1.0492806348504e-18
1.0350377598735e-18
8.6788443889506e-19
9.0365305549285e-19
6.2410275532963e-19
7.0170578975386e-19
3.7584335133844e-19
4.6797192087638e-19
1.8378636820368e-19
2.5970544763577e-19
7.2427505174952e-20
1.1767926949915e-19
2.3933987155459e-20
4.4063087871831e-20
7.2046123337585e-21
1.4374641567006e-20
2.1403675902186e-21
4.3980438340683e-21
6.5410049569367e-22
1.337791436827e-21
2.0755624110893e-22
4.1644639100303e-22
6.8146837965127e-23
1.3379170497593e-22
2.2989250797484e-23
4.429881178456e-23
7.8960640097176e-24
1.5022156814002e-23
2.73088646099e-24
5.1684993630373e-24
9.4010377216323e-25
1.7842671437804e-24
3.189072722245e-25
6.113481720277e-25
1.0587021366612e-25
2.060763245604e-25
3.4287631706886e-26
6.7961259389526e-26
1.0835075315075e-26
2.1880765838392e-26
3.348744187854e-27
6.8820857253876e-27
1.0154958022188e-27
2.1195946040658e-27
3.0305208605496e-28
6.4107823558344e-28
8.9202840206016e-29
1.9090761957763e-28
2.5936723348403e-29
5.608496968359e-29
7.4568717470518e-30
1.627714441449e-29
2.1214113769351e-30
4.6713436562801e-30
5.9759025648948e-31
1.3266941053601e-30
1.6678716728372e-31
3.7312887747225e-31
4.614845202944e-32
1.0398661932872e-31
1.2665423397465e-32
2.8732712635291e-32
3.4495165657816e-33
7.8755809264443e-33
9.3273419124033e-34
2.1423868734376e-33
2.5048697916167e-34
5.7863408459073e-34
6.6833041380434e-35
1.5522610494428e-34
1.7722070630052e-35
4.1374159453391e-35
4.6717751835957e-36
1.0960582669539e-35
1.2246461202831e-36
2.8867111959542e-36
3.1930698186944e-37
7.5605526469923e-37
8.2827621466784e-38
1.9696573145179e-37
2.1379795893628e-38
5.105205562153e-38
5.4926211459037e-39
1.3167782501975e-38
1.4047005476238e-39
3.3804456914396e-39
3.5767689049302e-40
8.6392592593138e-40
9.0692471620723e-41
2.1983376438363e-40
2.2902909435555e-41
5.5705366056992e-41
5.7611738551473e-42
1.4058840906352e-41
1.4437447238561e-42
3.5343782459161e-42
3.6048217194527e-43
8.8520761988036e-43
8.9689767060238e-44
2.209022591448e-43
2.2239071328806e-44
5.493249506513e-44
5.496060248252e-45
1.3613853226707e-44
1.3539110556046e-45
3.3628048678194e-45
3.3249526320299e-46
8.2800054826391e-46
8.1389744057021e-47
2.0325798374296e-46
1.9906923630895e-47
4.9707745786668e-47
4.7565558221584e-48
1.2209439396178e-47
1.3571671542406e-48
2.7820502255906e-48
1.065383475756e-48
0
0
0
0
0
0
0
0
0
0
4.3294359325392e-42
2.0979895986741e-42
5.1576493535933e-40
2.5005490493418e-40
2.9469418414222e-38
1.4317068570384e-38
1.0815029199054e-36
5.2730394658133e-37
2.8825745546276e-35
1.4122736060527e-35
5.9729127754696e-34
2.9439400901421e-34
1.0048986616067e-32
4.9883136388213e-33
1.4123511857989e-31
7.0703468629792e-32
1.6861528560676e-30
8.5254714484108e-31
1.7365681108083e-29
8.8849687696329e-30
1.5475482462635e-28
8.0284568983217e-29
1.2033399725929e-27
6.3414346035351e-28
8.2151579183454e-27
4.4102346722005e-27
4.8718104708558e-26
2.6565845457019e-26
2.7050210268368e-25
1.4807936708643e-25
1.5202561672786e-24
8.1050672702409e-25
1.0924548904128e-23
5.6100088826796e-24
1.0410806681504e-22
5.3509777760794e-23
9.3028930936758e-22
4.926749839283e-22
6.1274422629492e-21
3.4451737384831e-21
3.1767599795509e-20
1.8736753318617e-20
1.3415332464312e-19
8.2602673130649e-20
4.6351056997888e-19
2.9882809894276e-19
1.3028254091896e-18
8.863834325859e-19
2.9347650227709e-18
2.1315029447775e-18
5.1366822057256e-18
4.1064878815614e-18
6.6627730624563e-18
5.9333520063408e-18
7.2768087112147e-18
6.8105986619779e-18
7.6720795464651e-18
7.2101259588349e-18
8.2791690819383e-18
7.6272073558104e-18
9.4696604214114e-18
8.3800275815134e-18
1.1529290983901e-17
9.8136207936528e-18
1.4339001530196e-17
1.2048832064362e-17
1.6508618537698e-17
1.4454334094001e-17
1.6892184462511e-17
1.5556046797751e-17
1.677541752466e-17
1.5536035658621e-17
1.5722559643201e-17
1.4961659373414e-17
1.3347699693913e-17
1.3370710245729e-17
9.8555582109661e-18
1.0650482274444e-17
6.1037248090131e-18
7.2951223617841e-18
3.0822131939143e-18
4.1687156915003e-18
1.2635574826153e-18
1.9555167123802e-18
4.3756386566393e-19
7.6346966215998e-19
1.3840731282732e-19
2.6110065622179e-19
4.3134199683066e-20
8.3854770324093e-20
1.3801495106168e-20
2.6748102138519e-20
4.585408292326e-21
8.727630737583e-21
1.5782378809498e-21
2.9410343583268e-21
5.5858455403839e-22
1.0223518826744e-21
2.0120110448136e-22
3.6402906466552e-22
7.2864245225921e-23
1.3138136260045e-22
2.6208727353763e-23
4.7489966151407e-23
9.2664299731092e-24
1.6998396552991e-23
3.1968627463727e-24
5.9698507835316e-24
1.0721036377737e-24
2.0446649096909e-24
3.4937195910269e-25
6.8108254213285e-25
1.10882462852e-25
2.2071444327118e-25
3.4400487076312e-26
6.9757413569364e-26
1.0472815002695e-26
2.1576845032636e-26
3.1384848610869e-27
6.5540040899401e-27
9.2783224903113e-28
1.9603460654132e-27
2.7095816761628e-28
5.7849390105745e-28
7.8237131574158e-29
1.6864183293313e-28
2.2352054634045e-29
4.8611191310095e-29
6.3227897065089e-30
1.3865773602204e-29
1.7720117858465e-30
3.9164221897797e-30
4.9232352617797e-31
1.0961004081987e-30
1.3567312423466e-31
3.0414428639091e-31
3.7102489747509e-32
8.3715162057035e-32
1.0073083381078e-32
2.2867870719273e-32
2.7160507314689e-33
6.2019099780795e-33
7.2757937079145e-34
1.670578401327e-33
1.9369931926122e-34
4.4709399636006e-34
5.1263454910445e-35
1.1892074232182e-34
1.3490760752902e-35
3.1446204403976e-35
3.5311934395464e-36
8.2688635516941e-36
9.1952331773984e-37
2.1627019603274e-36
2.3826082406414e-37
5.6275476735669e-37
6.1443681025666e-38
1.4571514942147e-37
1.5773088228254e-38
3.7552448783926e-38
4.0313093556731e-39
9.6338339547671e-39
1.0259722148846e-39
2.4607161493611e-39
2.6004649035392e-40
6.2588534571513e-40
6.5652942495633e-41
1.5854921687477e-40
1.6512142991612e-41
4.0006514791766e-41
4.1376490157839e-42
1.0056626099937e-41
1.0331340001369e-42
2.5187394419628e-42
2.5707604383317e-43
6.2860069481611e-43
6.3754927367492e-44
1.5634217162867e-43
1.5760440847985e-44
3.8755119067903e-44
3.8829282737419e-45
9.5767006688253e-45
9.5577391006102e-46
2.3572627225149e-45
2.2977770413932e-46
5.8272854672905e-46
6.6019492706323e-47
1.3354912352233e-46
5.158812284923e-47
0
0
0
0
0
0
0
0
1.0212101492418e-54
2.9201745441643e-55
8.8995894016492e-41
4.2074273089294e-41
9.2032696123016e-39
4.366461461535e-39
4.6893177858323e-37
2.2341101709608e-37
1.5678441582225e-35
7.5057592420876e-36
3.8696689734658e-34
1.862661352489e-34
7.5228212997813e-33
3.6429383073564e-33
1.2010562476564e-31
5.8544453948362e-32
1.6195328611251e-30
7.9520050872589e-31
1.8783622676079e-29
9.299360796436e-30
1.9022032762719e-28
9.5092395845408e-29
1.6879576881311e-27
8.5364189627562e-28
1.3234010942144e-26
6.7839701003158e-27
9.1809569049528e-26
4.7856369208415e-26
5.5644847775407e-25
2.9531731139925e-25
3.0428711510371e-24
1.6468510400687e-24
1.4891054475007e-23
7.9619586355337e-24
9.4488813623806e-23
4.7367969890482e-23
9.8532490467934e-22
4.7188655281425e-22
9.5503884509562e-21
4.5670908386178e-21
1.1767738097638e-19
5.7899984887666e-20
1.0500045845615e-18
5.4779022241961e-19
6.264056833343e-18
3.4979724157706e-18
2.6676085612044e-17
1.5986714643468e-17
8.3093826096648e-17
5.3851587425244e-17
1.8363185525721e-16
1.332850085954e-16
2.6776383950527e-16
2.2981464998686e-16
2.8054997389331e-16
2.7113488603576e-16
2.7411447630003e-16
2.6718483054838e-16
2.3469070521444e-16
2.4253878075017e-16
1.7033697051994e-16
1.8870655835295e-16
1.3752605615801e-16
1.3762271045263e-16
1.3603846746029e-16
1.2612806952326e-16
1.4664745643643e-16
1.2929426086325e-16
1.6460665901865e-16
1.4161908479239e-16
1.7269612107716e-16
1.536151851653e-16
1.7288586604485e-16
1.5507790138456e-16
1.6468946759489e-16
1.5104450755566e-16
1.4322436758017e-16
1.3769664368064e-16
1.0838523290126e-16
1.1227613660418e-16
6.8961588806726e-17
7.8906946590049e-17
3.5935920970926e-17
4.6405668923037e-17
1.532331985792e-17
2.2532253798342e-17
5.5660195575175e-18
9.1765229690124e-18
1.8549034264211e-18
3.295342295981e-18
6.0894928373366e-19
1.1145172246861e-18
2.0499815228032e-19
3.7449162405798e-19
7.1643976698243e-20
1.2871115656714e-19
2.5947124561576e-20
4.5699843827215e-20
9.659896182669e-21
1.6737532211257e-20
3.6549758712173e-21
6.2731272331316e-21
1.3877090881146e-21
2.3788755943205e-21
5.2230903885187e-22
9.016801470704e-22
1.9288977467566e-22
3.3778192314928e-22
6.9360385899698e-23
1.2391098568278e-22
2.4171805639007e-23
4.421721433373e-23
8.1524873286259e-24