/*--------------------------------*- C++ -*----------------------------------*\
  =========                 |
  \\      /  F ield         | OpenFOAM: The Open Source CFD Toolbox
   \\    /   O peration     | Website:  https://openfoam.org
    \\  /    A nd           | Version:  7
     \\/     M anipulation  |
\*---------------------------------------------------------------------------*/
FoamFile
{
    version     2.0;
    format      ascii;
    class       volScalarField;
    location    "0.5";
    object      alpha.water;
}
// * * * * * * * * * * * * * * * * * * * * * * * * * * * * * * * * * * * * * //

dimensions      [0 0 0 0 0 0 0];

internalField   nonuniform List<scalar> 
6000
(
0
0
0
0
0
0
0
0
0
0
0
0
0
0
0
0
0
0
0
0
0
0
0
0
0
0
0
0
0
0
0
0
0
0
0
0
0
0
0
0
0
0
0
0
0
0
0
0
0
0
0
0
0
0
0
0
0
0
0
0
0
0
0
0
0
0
0
0
0
0
0
0
0
0
0
0
0
0
0
0
0
0
0
0
0
0
0
0
0
0
0
0
0
0
0
0
0
0
0
0
0
0
0
0
0
0
0
0
0
0
0
0
0
0
0
0
0
0
0
0
0
0
0
0
0
0
0
0
0
0
0
0
0
0
0
0
0
0
0
0
0
0
0
0
0
0
0
0
0
0
0
0
0
0
0
0
0
0
0
0
0
0
0
0
0
0
0
0
0
0
0
0
0
0
0
0
0
0
0
0
0
0
0
0
0
0
0
0
0
0
0
0
0
0
0
0
0
0
0
0
0
0
0
0
0
0
0
0
0
0
0
0
0
0
0
0
0
0
0
0
0
0
0
0
0
0
0
0
0
0
0
0
0
0
0
0
0
0
0
0
0
0
0
0
0
0
0
0
0
0
0
0
0
0
0
0
0
0
0
0
0
0
0
0
0
0
0
0
0
0
0
0
0
0
0
0
0
0
0
0
0
0
0
0
0
0
0
0
0
0
0
0
0
0
0
0
0
0
0
0
0
0
0
0
0
0
0
0
0
0
0
0
0
0
0
0
0
1.2983987998281e-40
4.2238592219512e-40
1.5330563218378e-39
4.8435900362186e-39
1.8672736134504e-38
7.1418414359439e-38
1.2960503067364e-37
1.2505630758403e-37
8.2302213206604e-38
2.2814581232574e-38
1.8486073318586e-39
1.2952165805334e-40
2.2392731685105e-41
6.6808055254676e-42
6.5596977032766e-43
1.1406252322659e-43
4.2620522266301e-44
4.3470004358914e-45
1.5074931940308e-45
1.6291548843462e-46
2.7864232666698e-47
5.2547292014882e-48
1.0255151235212e-48
2.2824253968467e-49
7.33477304288e-50
8.3499495167755e-51
1.3494642488734e-51
3.1534159918943e-52
5.5090216232529e-53
1.3857992863747e-53
2.1559255751406e-54
9.5995868607061e-55
2.0580897640086e-55
1.9726426610181e-56
4.2691162712171e-57
6.4428296494689e-58
2.310588438709e-58
2.5038151912572e-59
4.3761568447106e-60
1.7769800091453e-60
1.8034400629374e-61
6.8581595507036e-62
7.0232415557527e-63
1.2153564180853e-63
4.9732957661286e-64
5.0290505599169e-65
1.819801260697e-65
1.9315886694e-66
3.3635413337858e-67
1.3866697638971e-67
1.3947475013179e-68
5.2065555068021e-69
5.4027606230659e-70
9.3141060393561e-71
4.5369385549639e-71
7.4010896362481e-72
1.9149661171876e-72
1.6936549208468e-73
2.8516774966196e-74
1.0958324353905e-74
1.18065039082e-75
1.4142991211859e-76
3.7982391542876e-77
7.3045019122996e-78
2.5097296012534e-78
8.3690720526702e-79
2.1060973364414e-79
4.6976543988991e-80
8.8905222444871e-81
6.5674041498186e-82
1.0557480604172e-82
4.863713455004e-83
1.2464920287559e-83
9.7305313964066e-85
2.9576752732275e-85
9.0887536607054e-86
2.2304221321815e-86
4.8476672905384e-87
1.042756573221e-87
8.6820381392352e-89
2.952481054075e-89
6.5350438980311e-90
2.6023065365069e-90
0
0
0
0
0
0
0
0
0
2.6543549361762e-30
-7.0064920188198e-47
4.379057701015e-48
5.3638105558427e-31
-9.7016483585561e-54
-2.1895288505075e-48
0
-6.842277657836e-50
1.9256619800595e-33
5.0049765374517e-40
1.3878152721132e-39
4.5142422098675e-39
1.6481724987295e-38
1.3204579894064e-35
7.7913410231027e-37
1.3345878920123e-37
3.6052620238913e-38
4.522393274779e-39
1.008756802673e-39
2.8709505063582e-40
1.1934244138193e-40
5.2455562473605e-40
4.3778598311151e-42
8.2217778480073e-43
1.8378007404112e-41
3.1216541701015e-44
8.4453712088847e-42
1.3009023506092e-45
2.2103894699295e-46
6.0071742070274e-45
7.9581924190482e-48
1.5724255117503e-48
2.2898830334333e-46
5.7050572465106e-50
1.0705694401937e-50
3.6815023855928e-49
5.9969826794453e-50
1.4693190913931e-49
1.5370559399396e-53
5.5645243052082e-50
1.206799574174e-51
5.0006532692588e-55
1.9591011143147e-52
4.6846537957514e-57
6.7560591886668e-53
4.4869956501751e-57
3.3551677366223e-59
6.7725879813209e-55
1.2934497176345e-60
4.6436170756259e-56
4.958810589867e-62
7.7303390107398e-61
6.1357309607233e-58
3.596169091087e-64
4.2294644100672e-59
1.3710417160095e-65
2.5772304014919e-66
5.179920028461e-61
9.964003835734e-68
3.2384211295587e-62
3.8150271729653e-69
5.3573402756158e-67
8.8530512464389e-64
5.5070531021336e-68
3.6753092909717e-65
1.1589495275628e-72
2.1690074114485e-73
8.5575885122666e-67
5.4154035263162e-71
1.5308695055193e-75
1.7906154468558e-72
5.6004155354858e-77
1.7729109545427e-71
8.5336882995014e-71
5.5499234394092e-72
6.5749526106538e-73
1.6230228057677e-72
1.0269579204303e-76
8.0612098683413e-82
1.2679658493871e-75
5.4563593262326e-76
6.6059479106482e-84
7.6324634007399e-78
3.229718818645e-77
1.8366326852458e-78
2.1775155986507e-79
5.4091567812428e-79
3.3758017899972e-83
3.7785113692876e-80
1.2712479470438e-81
1.2819599356226e-81
0
0
0
0
0
0
0
4.3242019747826e-13
8.0813138631375e-12
6.108520284134e-11
2.8805689812967e-10
1.9331774354553e-09
2.1397603645243e-08
1.5356533142543e-07
5.0703094860117e-07
1.1057870162325e-06
1.5861001941628e-06
1.5842793617255e-06
1.3857997439896e-06
9.5307197571736e-07
4.095171338855e-07
8.1253956662689e-08
4.0537879179463e-09
1.6624677890517e-11
1.0137607316784e-21
9.2110781929167e-20
7.8120471855088e-13
1.1560796852265e-12
7.9357138147447e-13
3.3934107754613e-13
1.2619083959209e-13
4.4726847759994e-14
1.445737016683e-14
4.0279035755525e-15
9.6956953616334e-16
2.170332114952e-16
4.8880064580873e-17
1.1299246968411e-17
2.6288150214588e-18
6.0541896897476e-19
1.3765629127189e-19
3.1004059264109e-20
6.935178404889e-21
1.5420834767545e-21
3.4095157643895e-22
7.498014616544e-23
1.6407203539839e-23
3.5736842065058e-24
7.7504755016561e-25
1.6741355624017e-25
3.6025479778312e-26
7.7247112974574e-27
1.650803799162e-27
3.5166468213315e-28
7.4688628368446e-29
1.5817535539443e-29
3.3407384690473e-30
7.0375475489224e-31
1.4788597228308e-31
3.1003241853938e-32
6.4849402141908e-33
1.3535201390434e-33
2.8191725933064e-34
5.860201833033e-35
1.2158245294253e-35
2.5178391740691e-36
5.2049102060355e-37
1.0741237368607e-37
2.2129786900245e-38
4.5520448717609e-39
9.3490049559615e-40
1.91723655557e-40
3.9260714553013e-41
8.0284652825537e-42
1.6395223650062e-42
3.3437233776845e-43
6.8106468149213e-44
1.3855028524333e-44
2.815158196153e-45
5.7133267395805e-46
1.158190752279e-46
2.3452501689603e-47
4.743828777768e-48
9.5854328414204e-49
1.9348574718951e-49
3.9016823083169e-50
7.8601565667962e-51
1.581965898506e-51
3.1809696132286e-52
6.3903975369072e-53
1.2826592269995e-53
2.572281675675e-54
5.1541613842927e-55
1.0319007017905e-55
2.0642654140067e-56
4.1262746073671e-57
8.2384405164237e-58
1.6555336599763e-58
2.9714134189845e-59
1.0403008654132e-59
0
0
0
0
0
0
4.0693076600264e-13
1.0605526887442e-11
1.3459485209378e-10
1.1802569176221e-09
6.7103282831233e-09
2.824018798257e-08
1.5625123447037e-07
1.3185140844515e-06
1.0542676529617e-05
3.3902852007922e-05
5.2489486468128e-05
5.2539585228583e-05
4.6050306645997e-05
3.1864140270805e-05
1.3999195356732e-05
2.9526695786171e-06
1.8277078455239e-07
4.7033530278926e-09
7.6200853218868e-10
1.7091973128567e-10
3.3702384119187e-11
6.5248013609226e-12
5.1431638226687e-12
4.1990494402965e-12
2.2345501130207e-12
9.6756895168794e-13
3.819924837863e-13
1.3206708328379e-13
3.8133137201526e-14
9.3669201030899e-15
2.135894583788e-15
4.904768048981e-16
1.1535760197064e-16
2.724358409102e-17
6.3641361712967e-18
1.4674876735145e-18
3.3502377525513e-19
7.590556394997e-20
1.7083756285216e-20
3.8210666363462e-21
8.4966584791866e-22
1.8791379456494e-22
4.1351242535255e-23
9.0570888621211e-24
1.9751091278527e-24
4.2895721837669e-25
9.2803333099601e-26
2.0004881623819e-26
4.2975248462438e-27
9.202168377424e-28
1.9643724643902e-28
4.1810547086204e-29
8.8743657026797e-30
1.8786011805706e-30
3.9667034811428e-31
8.3554726087767e-32
1.7559140798311e-32
3.681867736096e-33
7.7037946976533e-34
1.6086041309794e-34
3.3522443551072e-35
6.9726216069611e-36
1.4476396289126e-36
3.00024684503e-37
6.2074361662006e-38
1.2821870254321e-38
2.6442227768714e-39
5.4447091101139e-40
1.1194444367142e-40
2.2982738139151e-41
4.7118503368249e-42
9.6469466232979e-43
1.9724873499733e-43
4.0279216061679e-44
8.2149688746684e-45
1.6734160986516e-45
3.4047824916353e-46
6.9195186230852e-47
1.4046772409672e-47
2.8484190329824e-48
5.7699210660696e-49
1.1675783118349e-49
2.3602790325488e-50
4.7666410185558e-51
9.6170856045938e-52
1.9385019053592e-52
3.9038228253809e-53
7.8546014808271e-54
1.578980099307e-54
3.1715014678652e-55
6.3625452324035e-56
1.2841371296315e-56
2.3258111826685e-57
8.0852368359268e-58
0
0
0
0
0
1.7033354148729e-13
6.2331866147346e-12
8.9886932524929e-11
9.385883131601e-10
8.8973061245753e-09
6.5985982160776e-08
3.3364006113036e-07
1.3305752754029e-06
6.3887109021118e-06
4.3026801664577e-05
0.00029961301266883
0.00094589074723142
0.0010450493345945
0.0009212669351073
0.00064947332960603
0.00030467856249533
6.920315301959e-05
4.8628934031403e-06
1.5974562351042e-07
2.7983537668006e-08
6.205410361403e-09
1.1655993890616e-09
2.2460477857702e-10
4.7964425983242e-11
1.1516045120474e-11
8.9332258074416e-12
6.9776019279191e-12
3.8566876069275e-12
1.6765469233371e-12
6.0238263468162e-13
1.7816119326301e-13
4.5068261634956e-14
1.062998304532e-14
2.5070660386878e-15
6.0005295828343e-16
1.4366938847084e-16
3.401913385461e-17
7.9523024381988e-18
1.8394398877703e-18
4.2190002476656e-19
9.6055089715397e-20
2.1720247127009e-20
4.8803921685249e-21
1.0901788371853e-21
2.4220532853504e-22
5.3540119115625e-23
1.1779621815189e-23
2.5803006243497e-24
5.6287682673971e-25
1.2231117448513e-25
2.6480377093181e-26
5.7131319626585e-27
1.2285576557627e-27
2.6336643255746e-28
5.6290528731523e-29
1.1997241805931e-29
2.5500876595874e-30
5.4064057968691e-31
1.1433795983581e-31
2.4123789577215e-32
5.0782709053337e-33
1.066695822151e-33
2.2359203988662e-34
4.6773234739094e-35
9.7655339871997e-36
2.0350841648639e-36
4.2333584012797e-37
8.7908495922307e-38
1.822406154668e-38
3.771828932682e-39
7.7942438347102e-40
1.6081726959889e-40
3.3132063381575e-41
6.8161755860256e-42
1.4003221956828e-42
2.8729471389895e-43
5.8864908060366e-44
1.204565483811e-44
2.4618675308514e-45
5.0254366164367e-46
1.0246408495275e-46
2.086755530999e-47
4.245083647163e-48
8.6263664380324e-49
1.751089015919e-49
3.5509000159723e-50
7.1933194082719e-51
1.4557650444767e-51
2.9432981226487e-52
5.9452128860738e-53
1.1997982813222e-53
2.4182985373145e-54
4.9017780588896e-55
8.9535811856372e-56
3.0943805143247e-56
0
0
0
0
0
1.7701606803284e-12
4.085946732263e-11
5.1198612144789e-10
5.4553953649491e-09
4.9562579365556e-08
3.6755415339199e-07
2.150187074395e-06
9.7708228339109e-06
3.8620697782922e-05
0.00017151529313152
0.00095433784412741
0.0050959332307687
0.016668812588149
0.018054773889243
0.014085509780921
0.0067724284031125
0.0013816600056508
7.166843967594e-05
3.1178872637004e-06
6.9111067274132e-07
1.4356055527297e-07
2.7005936399006e-08
5.0891997078568e-09
9.7183805477139e-10
1.9321666239382e-10
4.3787431767982e-11
2.0885580661856e-11
1.6117063848091e-11
1.0695332630557e-11
5.2119313766167e-12
1.9802878797612e-12
6.0256690666355e-13
1.5457433503954e-13
3.69975980427e-14
8.8827070921319e-15
2.159183383695e-15
5.2307280434338e-16
1.25121192528e-16
2.954311928391e-17
6.9019710299822e-18
1.5983123108423e-18
3.6723370396325e-19
8.3770456032702e-20
1.8982254510167e-20
4.2750029163842e-21
9.5731796549968e-22
2.132467532172e-22
4.7268268632041e-23
1.0429311782475e-23
2.2912033151776e-24
5.0130804537465e-25
1.092645265964e-25
2.3728938496861e-26
5.1355277998831e-27
1.1078359090276e-27
2.3824237914019e-28
5.1083411907778e-29
1.0922377632732e-29
2.3290862338847e-30
4.9537688295065e-31
1.051029259506e-31
2.2246754418434e-32
4.6982081090635e-33
9.9003344352902e-34
2.0818784698206e-34
4.3690038819668e-35
9.1508759091848e-36
1.9130479432866e-36
3.9920875886837e-37
8.3159483405046e-38
1.7293625996665e-38
3.5904311497394e-39
7.4424489692359e-40
1.5403349080458e-40
3.1832057985051e-41
6.5687658983669e-42
1.3536010145771e-42
2.785497814481e-43
5.7244909252049e-44
1.1749210767775e-44
2.4084268342428e-45
4.9308939020629e-46
1.0083218269751e-46
2.0595259670714e-47
4.2018708312205e-48
8.5632308485526e-49
1.743266756543e-49
3.5451330139344e-50
7.202023561974e-51
1.4616381427453e-51
2.963508398898e-52
6.0009077348341e-53
1.2215463690717e-53
2.249383050839e-54
7.735216683646e-55
0
0
0
0
4.8680655727041e-29
8.3570768339388e-12
1.7191876157613e-10
2.3600073287547e-09
2.6504443787308e-08
2.3713054588317e-07
1.7051439587378e-06
1.0040396133855e-05
4.935644569048e-05
0.00021006125217044
0.00084469969569795
0.003660549791089
0.017476986207605
0.084320992463073
0.29159984421277
0.32890413155293
0.16996999140603
0.03130200746978
0.0011311889922414
7.0582359458193e-05
1.5638896215927e-05
2.9974044737159e-06
5.6540407080856e-07
1.0665370735133e-07
2.013856570008e-08
3.8213891671647e-09
7.3837717739833e-10
1.5912943255089e-10
4.1732134587137e-11
3.3138546155833e-11
2.6224113727904e-11
1.4080915395667e-11
5.1805221499863e-12
1.5252551046275e-12
3.937593506122e-13
9.6935936934964e-14
2.3814166594183e-14
5.8611153437685e-15
1.4313118782375e-15
3.4505601298094e-16
8.2151315067474e-17
1.9353285512907e-17
4.5181709619831e-18
1.0462680422874e-18
2.4048625297611e-19
5.4898547795737e-20
1.2453321634259e-20
2.8084531617797e-21
6.2992102839871e-22
1.4057254890207e-22
3.1221349371985e-23
6.903449182802e-24
1.5200500517692e-24
3.3337268832332e-25
7.2841036487241e-26
1.585920803282e-26
3.4413130121317e-27
7.4434752138234e-28
1.6050999674009e-28
3.4511512352772e-29
7.3997613490497e-30
1.5823969047482e-30
3.3752475038088e-31
7.1818031298754e-32
1.5245483967328e-32
3.2290013823359e-33
6.8241961642431e-34
1.4392151401233e-34
3.0291689157034e-35
6.3631992645822e-36
1.3341687516204e-36
2.7922644657216e-37
5.8336278715611e-38
1.2166950645397e-38
2.5334294230145e-39
5.2667404326634e-40
1.0932058857235e-40
2.2657334861105e-41
4.6890128148843e-42
9.690312351883e-43
1.9998392318918e-43
4.1216371267663e-44
8.4835468513867e-45
1.7439466809099e-45
3.5805629999044e-46
7.3425269906003e-47
1.5039349992363e-47
3.0769078650295e-48
6.2880204887518e-49
1.2836277341628e-49
2.6175848042216e-50
5.3323270211445e-51
1.0848270390973e-51
2.2178555096847e-52
4.1165502344868e-53
1.409426378849e-53
0
0
0
0
-5.6441374206835e-44
2.5025007411497e-11
5.6943604600551e-10
8.7998222433323e-09
1.0203223341121e-07
9.2887106360604e-07
6.8838941322126e-06
4.1662054218345e-05
0.00021003461368275
0.00093390883965739
0.0039064371788313
0.016426700610158
0.078025571514402
0.38910558342702
0.8296673898242
0.89990544163476
0.83594201210531
0.49401853405541
0.092641142631313
0.0036793447615652
0.00028127401277853
6.4232023633432e-05
1.2112285223474e-05
2.2836738188169e-06
4.3061943324751e-07
8.1251525268028e-08
1.537055885598e-08
2.9409040765513e-09
5.8653210932979e-10
1.3805484361438e-10
7.6353558362855e-11
5.3177454975265e-11
2.8486597560281e-11
1.0394196778302e-11
3.0371440182034e-12
7.931253979896e-13
1.993752770589e-13
4.9838393535036e-14
1.2396991851302e-14
3.0502446687178e-15
7.4070484444342e-16
1.7769583302848e-16
4.2185363962851e-17
9.9233054877997e-18
2.3149729985138e-18
5.3596152924729e-19
1.2322063335671e-19
2.8146803880248e-20
6.3911085321568e-21
1.4431312318988e-21
3.2417419739795e-22
7.2466482745342e-23
1.6125397392653e-23
3.5728425424469e-24
7.8841024778752e-25
1.7330885272138e-25
3.7958246779067e-26
8.2849121113634e-27
1.8023493746178e-27
3.9086478822396e-28
8.451088392905e-29
1.8220265493391e-29
3.9174730466883e-30
8.4007133783323e-31
1.7969308330271e-31
3.8343765029139e-32
8.1629424228647e-33
1.7339044151045e-33
3.6750695166778e-34
7.7732275636258e-35
1.6408319794476e-35
3.4568732050059e-36
7.2692139910531e-37
1.525817732811e-37
3.1970850632599e-38
6.687532101221e-39
1.3965623745896e-39
2.9117833184158e-40
6.0615329426264e-41
1.2599405380047e-41
2.615052084386e-42
5.4198971856055e-43
1.1217577059471e-43
2.3185717042822e-44
4.7859802469136e-45
9.8665416970585e-46
2.031500125506e-46
4.1777280902516e-47
8.5811980915319e-48
1.7605673397969e-48
3.6079956265628e-49
7.3859448856532e-50
1.509926455778e-50
3.1008694084538e-51
5.8016978552399e-52
1.9786584504168e-52
0
0
0
0
0
4.8323737954047e-11
1.3053672901166e-09
2.239844396915e-08
2.7952432104417e-07
2.7121426092166e-06
2.1363986975163e-05
0.00014168036148186
0.00079226668913678
0.0037454926544013
0.016429006268104
0.077613205919453
0.38493822505208
0.84466277849956
0.9791801403331
0.99306253651823
0.9921996408784
0.95285082662005
0.68881075078864
0.15476801263546
0.008335743123038
0.00075265328369357
0.00017255564642387
3.3061415312162e-05
6.3260411485753e-06
1.20938410627e-06
2.3111438204541e-07
4.4218036129445e-08
8.5159726570246e-09
1.6885828950641e-09
3.860891645832e-10
1.5772080060708e-10
9.5281604541538e-11
4.7711269470859e-11
1.6775984230777e-11
4.8418915084438e-12
1.2768056316848e-12
3.2660825250814e-13
8.2799777970884e-14
2.0789629741522e-14
5.1528458304727e-15
1.260334543761e-15
3.0462768941584e-16
7.2869717021491e-17
1.727052223035e-17
4.0589240969533e-18
9.4660343702717e-19
2.19201137778e-19
5.0427631772986e-20
1.1530560684632e-20
2.6216174245639e-21
5.9290619926618e-22
1.3342712308096e-22
2.9886342791859e-23
6.6648201517076e-24
1.4801192001586e-24
3.2741127338418e-25
7.215509372278e-26
1.5845180912896e-26
3.4678329167666e-27
7.5651583434777e-28
1.6452797843574e-28
3.5676459589043e-29
7.7143298505297e-30
1.6635643225624e-30
3.5781044467964e-31
7.6768395215985e-32
1.6431195197885e-32
3.5087445572917e-33
7.4759532784662e-34
1.5894534760196e-34
3.3723116092957e-35
7.1406314810896e-36
1.5090489562168e-36
3.1831347419739e-37
6.7022013355527e-38
1.4086889758808e-38
2.9557736578172e-39
6.1916687517615e-40
1.2949283420092e-40
2.703991033545e-41
5.6377436099488e-42
1.1737190765303e-42
2.4400524455778e-43
5.0655538611146e-44
1.0501791622255e-44
2.1743215326388e-45
4.4959620786942e-46
9.2848310740334e-47
1.9150993481125e-47
3.945364679947e-48
8.1185765776001e-49
1.6682535376442e-49
3.4424676454713e-50
6.4940797950758e-51
2.2071076598566e-51
0
0
0
0
0
5.208639496341e-11
1.5675487255976e-09
2.9492823600907e-08
4.0845844375921e-07
4.4937122394523e-06
4.1958666087869e-05
0.00033629953647198
0.0022437584674874
0.012837125846767
0.067313157490213
0.35831124496155
0.83498178886445
0.97635550369327
0.99364749365023
0.99716236283417
0.99790529452746
0.99777215051717
0.97451295134149
0.72058030620408
0.15816594579579
0.0098199940607568
0.0012187060101132
0.00027146898784735
5.3561432710511e-05
1.0541008960737e-05
2.0705601917608e-06
4.0617308535769e-07
7.9697639876334e-08
1.5722702809131e-08
3.1945584984307e-09
7.3960382740273e-10
2.7645098304749e-10
1.4586578840059e-10
6.5571296923013e-11
2.177030213007e-11
6.1677526825277e-12
1.6375106445544e-12
4.2516315669332e-13
1.0910892195864e-13
2.7637632783931e-14
6.9028999774363e-15
1.701647112038e-15
4.1464994678055e-16
1.0000698166827e-16
2.3897099103585e-17
5.6620719319577e-18
1.3311316982131e-18
3.1070216009026e-19
7.2040198563691e-20
1.6600274012674e-20
3.8031605868893e-21
8.6660865723659e-22
1.9646884497595e-22
4.4328783947991e-23
9.9567192789464e-24
2.2268512277977e-24
4.9602945776199e-25
1.1006612279875e-25
2.4333868127594e-26
5.3611112355709e-27
1.1772097048593e-27
2.5767496156567e-28
5.6230168883249e-29
1.2234904767457e-29
2.6547115338101e-30
5.7447047742681e-31
1.2399287512002e-31
2.6696022931808e-32
5.7339886688847e-33
1.2287535028114e-33
2.6272745803574e-34
5.6054696453021e-35
1.1934813751924e-35
2.5359807031338e-36
5.3781249738805e-37
1.1384055837486e-37
2.4053014445194e-38
5.0730869373729e-39
1.0681399465406e-39
2.2452191651819e-40
4.7117767938746e-41
9.8724686485942e-42
2.0653835501972e-42
4.3144708039995e-43
8.9996043064077e-44
1.8745835728835e-44
3.899307356697e-45
8.1000277309694e-46
1.6804144883127e-46
3.4816960596756e-47
7.2049109491896e-48
1.488784242574e-48
3.0881990298891e-49
5.8762739728753e-50
1.9912121026891e-50
0
0
0
0
0
4.5038175187011e-11
1.3816577793698e-09
2.6892038645238e-08
3.8502557699746e-07
4.4161842257172e-06
4.3759901409162e-05
0.00040021715249095
0.0035548862609954
0.031043013216681
0.23980130555986
0.77817572250165
0.9740057859933
0.99360938392245
0.99718568093463
0.99800969925342
0.99816257512525
0.99822346968102
0.99718634549047
0.96567195459546
0.61010092509679
0.10406516342081
0.0061448331631495
0.00096436838284236
0.00022019597807999
4.5101929169918e-05
9.2458691044766e-06
1.8960265873064e-06
3.8908841911094e-07
8.0110902807544e-08
1.6726882687875e-08
3.6999183697715e-09
9.7981268807592e-10
3.8444267397814e-10
1.7897010978285e-10
7.0075053338735e-11
2.17402348463e-11
6.0837172352705e-12
1.6358619431106e-12
4.3187386593286e-13
1.1228476231241e-13
2.8746543595424e-14
7.2536507895773e-15
1.8067768866026e-15
4.44885127393e-16
1.0841328462745e-16
2.617054074056e-17
6.2629975463475e-18
1.4869261676443e-18
3.5042484437793e-19
8.2021527995445e-20
1.907616160383e-20
4.4102648655748e-21
1.0139354175146e-21
2.3188518234178e-22
5.276961176323e-23
1.1952587509458e-23
2.6953514213823e-24
6.0526179007407e-25
1.3537430676008e-25
3.0163226365493e-26
6.6964532584816e-27
1.4815234551998e-27
3.2668921905418e-28
7.1809998329239e-29
1.5736781375214e-29
3.4385947979415e-30
7.4925548594229e-31
1.6282057485059e-31
3.5290901927335e-32
7.6301208039545e-33
1.6457122174334e-33
3.5413317478492e-34
7.6033317918149e-35
1.6289147755733e-35
3.4824156648086e-36
7.4298456998606e-37
1.5820621499245e-37
3.3623124475547e-38
7.1326071582684e-39
1.5103512810702e-39
3.1926377743872e-40
6.7372843812209e-41
1.4193980760546e-41
2.9855700917862e-42
6.2700761482765e-43
1.3147972505078e-43
2.7529756215333e-44
5.7559896909207e-45
1.2017869987608e-45
2.5057616477673e-46
5.2176656808407e-47
1.084796920124e-47
2.2632528310837e-48
4.3460389558147e-49
1.4693853617688e-49
0
0
0
1.7369419946586e-40
2.1967677288929e-32
2.6697136323916e-11
8.2064301593623e-10
1.7130416587423e-08
2.6320092110195e-07
3.2587899729036e-06
3.5030605377516e-05
0.00034593598705854
0.0033110280282803
0.03500301771834
0.37384431363377
0.89361361936785
0.99053031477641
0.9970120216553
0.9980997340252
0.99816308367362
0.99824117860646
0.99826433898122
0.99796439704777
0.98862348239838
0.86240590387983
0.28636132655874
0.02159189094935
0.0020895174178755
0.00045690817881227
9.9540894773993e-05
2.0813305623775e-05
4.3545297717291e-06
9.1104954919528e-07
1.9083866219999e-07
4.0339321107943e-08
8.8218329666725e-09
2.2049256939875e-09
7.9246765885388e-10
3.7995964379522e-10
1.6198761332401e-10
5.498080059137e-11
1.64399806671e-11
4.6413417650718e-12
1.2726827696705e-12
3.4198674567896e-13
9.0258185187114e-14
2.3431801798717e-14
5.9939200686435e-15
1.5132211409804e-15
3.7753980515922e-16
9.3190397917928e-17
2.2778860168166e-17
5.5181477310571e-18
1.3257388128888e-18
3.1607574847353e-19
7.4821570372017e-20
1.7594318010935e-20
4.1116225754081e-21
9.5524633369733e-22
2.2071334664311e-22
5.073275372947e-23
1.1604276714933e-23
2.6419820513161e-24
5.9886179680418e-25
1.3517696756218e-25
3.0391003030752e-26
6.8066565287726e-27
1.5189495775359e-27
3.3778665129451e-28
7.4867833142553e-29
1.6540985464905e-29
3.6433135613863e-30
8.0011588326288e-31
1.7521820972685e-31
3.8266736541102e-32
8.3353251079739e-33
1.8110196315079e-33
3.9251975515206e-34
8.4873818083433e-35
1.8310236693845e-35
3.9414361027387e-36
8.4661499939879e-37
1.8147525559153e-37
3.8821870738941e-38
8.2887553608737e-39
1.7663671260286e-39
3.7572941846645e-40
7.9780119553225e-41
1.6910679780556e-41
3.5784505833732e-42
7.5599047179721e-43
1.5945710215486e-43
3.358116540943e-44
7.0613764806493e-45
1.4826584084772e-45
3.1086470681342e-46
6.5073006987779e-47
1.3664201511043e-47
2.6493006234399e-48
8.9462951224895e-49
0
0
0
1.0520001252924e-39
2.4693036919565e-32
6.7595178304025e-12
1.9729728784984e-10
4.7866207851355e-09
8.8723193252274e-08
1.318455240514e-06
1.6589988017256e-05
0.00018778625052526
0.0019936530817156
0.02471685465718
0.30872359313769
0.86480960033496
0.99054094685525
0.99749129265901
0.9980679788315
0.99823554374923
0.99826549818019
0.99825641898852
0.99737081866833
0.98582503462641
0.85803415012165
0.29964959356623
0.027015924523985
0.0031366558444347
0.00077584090465559
0.00018957773861451
4.0570746562809e-05
8.3015092799532e-06
1.6895094475474e-06
3.4411916621416e-07
7.0389614657348e-08
1.5190161137955e-08
3.780260933129e-09
1.3376455236293e-09
6.3587274148313e-10
2.8288762154736e-10
1.0418737880329e-10
3.3424334466717e-11
9.9679917784804e-12
2.8555173154951e-12
7.9681214267391e-13
2.1764443415128e-13
5.8334901056507e-14
1.5374518803544e-14
3.9918589700685e-15
1.0226521970226e-15
2.5883333659583e-16
6.4792191431549e-17
1.6056029060344e-17
3.9419895977192e-18
9.595315188695e-19
2.3170603423669e-19
5.5537579729633e-20
1.321963056316e-20
3.1262494913467e-21
7.3480168692786e-22
1.7171678222922e-22
3.9910860821152e-23
9.2285280789086e-24
2.1235039509319e-24
4.8636201746583e-25
1.1090477866734e-25
2.518345772885e-26
5.6955883459493e-27
1.2832092541296e-27
2.880474556703e-28
6.443254890602e-29
1.4364278600441e-29
3.1919641436376e-30
7.0710282822441e-31
1.5617403682652e-31
3.439418169247e-32
7.5536410670265e-33
1.6544956716892e-33
3.6145409303405e-34
7.8769291850915e-35
1.712430750557e-35
3.7141160436726e-36
8.0374190836094e-37
1.7355100323699e-37
3.7395225645957e-38
8.0410251704018e-39
1.7255967224574e-39
3.6959404083902e-40
7.9011874046826e-41
1.6860265426916e-41
3.5913932727081e-42
7.6367565602649e-43
1.6211468703957e-43
3.4357565292275e-44
7.2698789936208e-45
1.5358841239719e-45
3.2392565381479e-46
6.8506229526317e-47
1.3417303059267e-47
4.5310769783803e-48
0
0
0
3.4075098842189e-39
3.5242403673425e-39
2.0743216154416e-13
6.2955150154388e-12
2.1626258356755e-10
5.6617168090718e-09
1.2400253702272e-07
2.3208080657392e-06
3.7162122539463e-05
0.00053944553910558
0.0075141372790902
0.10845905219355
0.6651407430414
0.97170778310103
0.99659682435433
0.99801169644147
0.99818351924935
0.99823554374923
0.99788988827947
0.9934875567939
0.96473249269598
0.75377171554712
0.20731033995659
0.021412318146042
0.0037034186963557
0.00093964325237884
0.00022420387754621
5.0475682188829e-05
1.1302382578064e-05
2.5143669198712e-06
5.5462764230573e-07
1.2074916111679e-07
2.637749744883e-08
6.2863766653995e-09
2.0256191980343e-09
9.0219744223455e-10
4.0791517691037e-10
1.5942658478681e-10
5.4293989889071e-11
1.7043048844823e-11
5.0994953017706e-12
1.4783208611026e-12
4.1807251275044e-13
1.1574063345357e-13
3.1446844622498e-14
8.4032704837592e-15
2.2124014767609e-15
5.7471795770741e-16
1.4748554978954e-16
3.7428157897706e-17
9.4013515448411e-18
2.3391790102746e-18
5.7691941007783e-19
1.4112638481426e-19
3.4259153320791e-20
8.2571433512073e-21
1.97677046395e-21
4.7024716738465e-22
1.111972987553e-22
2.6145757528903e-23
6.1147108730827e-24
1.4227756697964e-24
3.2945141673366e-25
7.5934823083717e-26
1.7425205823092e-26
3.9818791350881e-27
9.062567620293e-28
2.0546685393618e-28
4.6411852977081e-29
1.0446659354569e-29
2.343408371246e-30
5.2395910482606e-31
1.1678285089797e-31
2.5950351585204e-32
5.7495945453717e-33
1.2702980070356e-33
2.7989206150028e-34
6.1508050807783e-35
1.3482408981963e-35
2.9480370659655e-36
6.4307588426191e-37
1.3995472921871e-37
3.0390626092863e-38
6.5848758920773e-39
1.4237679073236e-39
3.0721396307397e-40
6.6157353513252e-41
1.4219190027168e-41
3.0503819808664e-42
6.531881537109e-43
1.3962018560379e-43
2.9792300289425e-44
6.3464213478007e-45
1.3494595701499e-45
2.8763246277732e-46
5.6928030818902e-47
1.9253445678199e-47
0
0
0
2.4256444851914e-39
3.5242403674767e-39
8.0826465538467e-18
9.6026771418895e-14
3.6295081292379e-12
7.8333446816716e-11
2.0902660526526e-09
5.5183691768969e-08
1.2841828004232e-06
2.5975704083566e-05
0.00048123001533124
0.01174437689058
0.17642518571975
0.76915391376662
0.98300733651989
0.99682442972388
0.99790266396693
0.99748216087651
0.99324749081762
0.97136073043426
0.85158897741566
0.39247901658837
0.072932773694442
0.01380171483616
0.0034990033796657
0.00090415252814628
0.00022038895796074
5.2043482779149e-05
1.2033420253527e-05
2.7490178622765e-06
6.2091805878804e-07
1.3989975940221e-07
3.228012456047e-08
8.0913633487607e-09
2.5819254993892e-09
1.113670718333e-09
5.0489939068876e-10
2.0361075274885e-10
7.244167730802e-11
2.3784455549137e-11
7.4234914047013e-12
2.236572709651e-12
6.5528211111869e-13
1.8747758506246e-13
5.2535589172655e-14
1.4454301041406e-14
3.9123969967583e-15
1.0435206081967e-15
2.7464026782563e-16
7.1406109318591e-17
1.8358886700712e-17
4.6716625503794e-18
1.1774374242093e-18
2.9412595714516e-19
7.2864051221997e-20
1.7910419739106e-20
4.3703440264035e-21
1.0590778612369e-21
2.5498245245807e-22
6.1012050608418e-23
1.4513881630722e-23
3.4335415024043e-24
8.079969055957e-25
1.8918843343984e-25
4.408569009989e-26
1.0226152644554e-26
2.3617029383556e-27
5.4314714896955e-28
1.2441262440029e-28
2.8388123668839e-29
6.4535744586661e-30
1.4618990583126e-30
3.3002447952554e-31
7.4257697129296e-32
1.6655398832263e-32
3.7242223672671e-33
8.302889440368e-34
1.8457784616007e-34
4.0919266067594e-35
9.0471787382653e-36
1.995136965801e-36
4.3887591758249e-37
9.6306106487503e-38
2.1083410901763e-38
4.6050390302304e-39
1.0035988627751e-39
2.1824740597417e-40
4.7361619466612e-41
1.0256939453543e-41
2.2169046078684e-42
4.7823056705135e-43
1.02970017277e-43
2.2130541366408e-44
4.7470664547256e-45
1.020380783214e-45
2.0414057772503e-46
6.9246756417022e-47
0
0
0
4.4612294101515e-40
2.8096186558865e-35
-5.067862540715e-19
1.0145461394818e-14
4.4200029778431e-13
1.1327776449553e-11
1.6629468015199e-10
2.3651313993323e-09
3.5871862616943e-08
5.4174897002851e-07
1.0262520642894e-05
0.00030697273407003
0.013412377841295
0.16095779717951
0.70936008022828
0.97344570630574
0.99437216522507
0.98974621561061
0.96422856862152
0.84102225196239
0.40630626821116
0.083674596194137
0.021355863673382
0.0074971623627953
0.0023254155236323
0.00063258105737133
0.00016484712030421
4.1797437167124e-05
1.0362241398518e-05
2.514596471031e-06
5.9990997683804e-07
1.4189359098305e-07
3.3778803418026e-08
8.5853780828227e-09
2.7393983978591e-09
1.1684359168705e-09
5.294210367467e-10