/*--------------------------------*- C++ -*----------------------------------*\
  =========                 |
  \\      /  F ield         | OpenFOAM: The Open Source CFD Toolbox
   \\    /   O peration     | Website:  https://openfoam.org
    \\  /    A nd           | Version:  7
     \\/     M anipulation  |
\*---------------------------------------------------------------------------*/
FoamFile
{
    version     2.0;
    format      ascii;
    class       surfaceScalarField;
    location    "0.5";
    object      alphaPhi0.water;
}
// * * * * * * * * * * * * * * * * * * * * * * * * * * * * * * * * * * * * * //

dimensions      [0 3 -1 0 0 0 0];

internalField   nonuniform List<scalar> 
11840
(
0
0
0
0
0
0
0
0
0
0
0
0
0
0
0
0
0
0
0
0
0
0
0
0
0
0
0
0
0
0
0
0
0
0
0
0
0
0
0
0
0
0
0
0
0
0
0
0
0
0
0
0
0
0
0
0
0
0
0
0
0
0
0
0
0
0
0
0
0
0
0
0
0
0
0
0
0
0
0
0
0
0
0
0
0
0
0
0
0
0
0
0
0
0
0
0
0
0
0
0
0
0
0
0
0
0
0
0
0
0
0
0
0
0
0
0
0
0
0
0
0
0
0
0
0
0
0
0
0
0
0
0
0
0
0
0
0
0
0
0
0
0
0
0
0
0
0
0
0
0
0
0
0
0
0
0
0
0
0
0
0
0
0
0
0
0
0
0
0
0
0
0
0
0
0
0
0
0
0
0
0
0
0
0
0
0
0
0
0
0
0
0
0
0
0
0
0
0
0
0
0
0
0
0
0
0
0
0
0
0
0
0
0
0
0
0
0
0
0
0
0
0
0
0
0
0
0
0
0
0
0
0
0
0
0
0
0
0
0
0
0
0
0
0
0
0
0
0
0
0
0
0
0
0
0
0
0
0
0
0
0
0
0
0
0
0
0
0
0
0
0
0
0
0
0
0
0
0
0
0
0
0
0
0
0
0
0
0
0
0
0
0
0
0
0
0
0
0
0
0
0
0
0
0
0
0
0
0
0
0
0
0
0
0
0
0
0
0
0
0
0
0
0
0
0
0
0
0
0
0
0
0
0
0
0
0
0
0
0
0
0
0
0
0
0
0
0
0
0
0
0
0
0
0
0
0
0
0
0
0
0
0
0
0
0
0
0
0
0
0
0
0
0
0
0
0
0
0
0
0
0
0
0
0
0
0
0
0
0
0
0
0
0
0
0
0
0
0
0
0
0
0
0
0
0
0
0
0
0
0
0
0
0
0
0
0
0
0
0
0
0
0
0
0
0
0
0
0
0
0
0
0
0
0
0
0
0
0
0
0
0
0
0
0
0
0
0
0
0
0
0
0
0
0
0
0
0
0
0
0
0
0
0
0
0
0
0
0
0
0
0
0
0
0
0
0
0
0
0
0
0
0
0
0
0
0
0
0
0
0
0
0
0
0
0
0
0
0
0
0
0
0
0
0
0
0
0
0
0
0
0
0
0
0
0
0
0
0
0
0
0
0
0
0
0
0
0
0
0
0
0
0
0
0
0
0
0
0
0
0
0
0
0
0
0
0
0
0
0
0
0
0
0
0
0
0
0
0
0
0
0
0
0
0
0
0
0
0
0
0
0
0
0
0
0
0
0
0
0
0
0
0
0
0
0
0
0
0
0
0
0
0
0
0
0
0
0
0
0
0
0
0
0
0
0
0
0
0
0
0
0
0
0
0
0
0
0
0
0
0
0
0
0
0
0
0
0
0
0
0
0
1.1868786647328e-42
1.0268896294775e-42
3.9203741027033e-42
4.4832949550375e-42
1.3878794799258e-41
1.6164016166884e-41
4.4180618912184e-41
5.0447980683923e-41
1.7088864892236e-40
1.8356809398097e-40
5.1114820195919e-40
4.3375170883193e-40
6.5478821264853e-40
5.6623723028176e-40
6.09043325302e-40
4.8122491985618e-40
2.8472064906986e-40
2.5150426303787e-40
4.3955286962176e-41
7.9218197417469e-41
5.4343138240697e-42
1.6856714026793e-41
1.054646105296e-42
3.4819864131289e-42
1.939376899289e-43
7.2234636368852e-43
4.7477780405368e-44
1.143984847501e-43
8.6853773774513e-45
3.5640273200272e-44
1.3535742876747e-45
6.7779914039483e-45
3.3645402097069e-46
8.394019380168e-46
5.0903194773695e-47
2.6628199935548e-46
1.3213801624528e-47
3.1744417123212e-47
2.4081319603103e-48
1.0110626499776e-47
3.6505484372114e-49
1.9229384709854e-48
8.9648841886698e-50
2.5421969333571e-49
1.5969906469317e-50
6.9264411181806e-50
2.5793713203071e-51
1.3428974863668e-50
4.8927233570516e-52
1.5082471344688e-51
1.1790824601753e-52
3.2078448723432e-52
1.7208084117538e-53
9.3518771386744e-53
4.3109377986006e-54
1.2017718461701e-53
7.9657819026416e-55
3.4612960274194e-54
1.6475324323796e-55
6.9053273755343e-55
2.5614610598605e-56
1.3210957284082e-55
5.658661180217e-57
1.6329373652594e-56
1.29110633588e-57
3.3331823842442e-57
2.4745067720393e-58
1.0653400117081e-57
5.0740145983529e-59
2.1200470657491e-58
7.6561382073777e-60
4.0401130437447e-59
1.9884975379133e-60
4.7979267246468e-60
3.6400854983422e-61
1.5312784304412e-60
5.5613368641661e-62
2.9175013962623e-61
1.3936083580026e-62
3.4987401538748e-62
2.1272536801572e-63
1.1130959920004e-62
5.3362975463841e-64
1.3386984347039e-63
8.1719719107991e-65
4.2564664651096e-64
1.5443341599906e-65
6.1663577241553e-65
3.8708934690578e-66
9.7294157718137e-66
5.8932353932414e-67
3.0932559124767e-66
1.5294200065759e-67
3.6937626209007e-67
2.7954222131328e-68
1.1778811560267e-67
4.2783203527763e-69
2.2408728954159e-68
1.0725351494408e-69
2.6969744982316e-69
1.6369872282254e-70
8.5692490929787e-70
4.1894189105434e-71
1.0292126795748e-70
7.1482154813103e-72
3.2747494800074e-71
1.2041375392882e-72
5.596594810521e-72
2.6680265776075e-73
7.7097216251485e-73
5.1549107368716e-74
1.8996220308321e-73
1.2864894307043e-74
3.1777923180554e-74
2.3467148467878e-75
9.8958391163452e-75
3.5781770958545e-76
1.8838394166593e-75
9.3210166168665e-77
2.2449331860168e-76
1.7276983724126e-77
7.1595413023842e-77
3.3012065119819e-78
1.3456039855558e-77
6.0608259699384e-79
2.5555229954566e-78
9.2188317755066e-80
4.8699651922194e-79
1.9833035584211e-80
6.3755317520132e-80
4.4499439988552e-81
1.2387457822147e-80
9.6705257780672e-82
2.7062641323399e-81
2.0472416217328e-82
5.848118060554e-82
4.8015342255194e-83
1.2171178956109e-82
8.74601280936e-84
3.6763935890942e-83
1.3441812084889e-84
7.0054618344368e-84
3.0296941202856e-85
8.5717937068151e-85
7.0693061643761e-86
1.8334695512941e-85
1.0622954673473e-86
5.632894802838e-86
2.2594878876639e-87
7.2546463354096e-87
4.9809124515216e-88
1.4086146269436e-87
1.0647969615565e-88
3.0246120442461e-88
2.2464810914087e-89
6.4161737957793e-89
4.4806468722961e-90
1.3620270680836e-89
8.0612357149997e-91
3.3169803098381e-90
1.7408852843959e-91
5.0916432155737e-91
4.2349603929927e-92
1.0429579803323e-91
3.1114634362163e-92
0
0
0
0
0
0
0
0
0
0
0
0
0
0
0
0
0
0
1.179707283999e-32
0
2.1449307312726e-33
9.652142108717e-33
3.8998825919801e-34
1.7549424720746e-33
2.3839156318849e-33
0
4.3343920629247e-34
1.9504764255924e-33
7.880712842435e-35
3.5463207786812e-34
1.4328568804739e-35
6.4478559619611e-35
2.6051943281384e-36
1.1723374476601e-35
8.5584975581332e-36
0
1.5560941145203e-36
7.002416485127e-36
2.8293654318716e-37
1.273197416535e-36
5.1476304112307e-38
2.3158639594744e-37
9.4802265448579e-39
4.2449680115584e-38
2.6775791589712e-38
0
7.7424424539481e-39
3.2386210725748e-38
2.0314329585594e-39
6.7015641395796e-39
7.5690898767345e-40
1.4316128696569e-39
1.6827403236973e-40
6.8234352449483e-40
3.7037818130419e-41
1.5038559649647e-40
8.186114617323e-42
3.2066230452778e-41
1.9014534093913e-42
6.4072893298021e-42
2.3275738563988e-42
0
4.3873919883357e-43
1.903800021015e-42
8.2699077366504e-44
3.5893970754926e-43
8.16501828743e-44
0
1.4957443633655e-44
6.6816099808839e-44
5.7728980413759e-45
0
5.7793804289748e-45
0
2.1864345990597e-46
5.5616737851809e-45
2.1178317836458e-46
0
3.8534835056842e-47
1.7328219495892e-46
3.5206222070636e-48
3.5107551551574e-47
1.795729081666e-48
6.833994364771e-48
5.5281318269628e-49
1.2429636768363e-48
1.1308852726634e-50
5.4154807052758e-49
5.77221776987e-51
0
3.3857552009586e-51
1.1971359867153e-51
1.305867245428e-51
2.9381095966665e-51
2.3748760775842e-52
1.0684528599904e-51
2.4365707157914e-53
0
7.0783421596069e-54
0
7.0624530210288e-54
9.193070724422e-57
1.7413637430578e-54
3.9180406082211e-54
3.1662939395008e-55
1.4247587784729e-54
4.6224840745002e-56
0
4.6209641852036e-56
0
6.171857140896e-57
4.0037959927226e-56
3.5055985297397e-57
0
4.5896542874167e-58
3.0466396666083e-57
2.6509103661738e-58
0
5.949247329663e-60
2.5914203793254e-58
5.9460834739391e-60
0
3.2389973004092e-60
0
4.211040052267e-61
2.8178950861977e-60
2.2526639273734e-61
0
4.0957577458987e-62
1.8430888320136e-61
5.2875324589975e-63
3.5670057989005e-62
2.7820331329234e-63
0
3.5418444513212e-64
2.4278491800575e-63
1.9138753206333e-64
0
5.256343557899e-66
1.8613120729012e-64
5.2536565465821e-66
0
4.2942504196256e-67
0
4.2912507721597e-67
0
2.2239522313406e-67
0
3.8056940329143e-68
1.8433828847325e-67
5.7446858205927e-69
3.2312255600193e-68
6.2577462371631e-70
0
6.254507733707e-70
0
2.0691331909643e-71
6.0475944932385e-70
2.0680623843342e-71
0
6.9794150517519e-73
1.9982682620134e-71
5.9198859709536e-73
0
5.3688615538944e-74
0
1.6553204998088e-74
0
1.2184560525974e-74
0
1.2221012657546e-75
0
1.2214076681686e-75
0
2.1745402175211e-77
1.1996622699908e-75
1.3019996177352e-77
0
9.1764851317081e-78
0
3.0162730530203e-79
8.8748578577344e-78
2.4942164379899e-79
0
1.9605128478129e-80
0
5.9613227547859e-81
0
4.3557013212496e-81
0
3.1197496975467e-82
0
3.1172249705292e-82
0
2.0225559202285e-83
0
1.0364700638821e-83
0
0
0
0
0
0
0
0
0
0
0
0
0
0
0
0
4.4752909694787e-15
2.2534783389252e-15
7.8968224808843e-14
4.2425326698625e-14
5.667309995114e-13
3.533145931443e-13
3.0448391688736e-12
1.9879915938752e-12
2.4279749561605e-11
1.4062180856808e-11
2.5075095221309e-10
1.4742003057181e-10
1.4393562985167e-09
1.0098506760042e-09
4.0552872490395e-09
3.817410851641e-09
7.5194714591193e-09
8.8534695424908e-09
8.6778076490706e-09
1.265636233229e-08
8.5576027074644e-09
1.283113315527e-08
6.7970346922848e-09
1.1309767283222e-08
3.8541027378102e-09
7.79382979131e-09
1.1996567933874e-09
3.473732892127e-09
1.7646562098035e-10
8.336607963551e-10
2.3380648329195e-11
1.1763251866318e-10
4.1477340345348e-12
1.8967142150466e-11
7.3637113518845e-13
3.4113628993666e-12
1.3329974696942e-13
6.0307139006125e-13
3.0344116667034e-14
1.0322317778543e-13
9.669744837899e-15
2.0997962715864e-14
3.38320472378e-15
6.3525959436657e-15
1.1899519823607e-15
2.2078859325584e-15
4.2001860208658e-16
7.8375384169086e-16
1.4302678945636e-16
2.7537664492364e-16
4.39991705977e-17
9.0751243915495e-17
1.1861961419909e-17
2.6742245252947e-17
2.9096500244203e-18
7.0514650100973e-18
6.9250801804972e-19
1.7405442136235e-18
1.6515834620217e-19
4.2019176238299e-19
3.9393019303734e-20
1.0082772166404e-19
9.3087628059806e-21
2.4013920221756e-20
2.1722769384916e-21
5.6567312568256e-21
5.0141324467676e-22
1.317427499152e-21
1.1473026593362e-22
3.0379126448569e-22
2.6054809750585e-23
6.9459122598431e-23
5.8761705681025e-24
1.5761390090265e-23
1.3167785621201e-24
3.5518459239566e-24
2.9332916146154e-25
7.9533098226734e-25
6.4985766567542e-26
1.7704841463786e-25
1.4324315591596e-26
3.9199307833348e-26
3.142480844921e-27
8.6352592726053e-27
6.863537469965e-28
1.8933526409894e-27
1.492861615903e-28
4.1331282344477e-28
3.234408563301e-29
8.9853657941538e-29
6.9818612454428e-30
1.9458464543579e-29
1.5018852345123e-30
4.1984932104353e-30
3.2201179710679e-31
9.0277115941761e-31
6.8825551339657e-32
1.9348205939282e-31
1.4666881088405e-32
4.1338543340234e-32
3.1167205209603e-33
8.8061826892935e-33
6.6052158359874e-34
1.8706801325652e-33
1.3962332395601e-34
3.9632111310109e-34
2.9441479013671e-35
8.3749645354368e-35
6.1935176254775e-36
1.7654494419131e-35
1.2999705569251e-36
3.712864937121e-36
2.7226228222974e-37
7.7908796401252e-37
5.6903127753394e-38
1.6312721862275e-37
1.1868996782991e-38
3.4085174962369e-38
2.4708904080466e-39
7.1078463624319e-39
5.1343441675442e-40
1.4793675048292e-39
1.064969383377e-40
3.0733346347011e-40
2.2051437182833e-41
6.3733500797903e-41
4.5583720516088e-42
1.3194004593379e-41
9.4076205326407e-43
2.7268528313144e-42
1.9385175208661e-43
5.626610759482e-43
3.9884224538772e-44
1.1591903527134e-43
8.1939726544181e-45
2.3845518912367e-44
1.6810058451357e-45
4.898050404548e-45
3.4438462235836e-46
1.0046700819349e-45
7.0458866903599e-47
2.0579071596832e-46
1.4396657129213e-47
4.2096658968697e-47
2.9379047872317e-48
8.6001424958343e-48
5.9879619910702e-49
1.7547517414976e-48
1.2189900073312e-49
3.575961702585e-49
2.4786484574913e-50
7.2786631915034e-50
5.0342721591321e-51
1.4798094090665e-50
1.0213583085088e-51
3.0051665872919e-51
2.0699098288007e-52
6.0961068772668e-52
4.1905234278942e-53
1.2352929561549e-52
8.4750032117648e-54
2.5005316037593e-53
1.7122886624621e-54
5.0565099848915e-54
3.4561289506633e-55
1.0214949701165e-54
6.9692922724881e-56
2.061573018289e-55
1.4040505968335e-56
4.1566956108286e-56
2.826060011323e-57
8.3732536333871e-57
5.6832055328343e-58
1.6851786644192e-57
1.1418997248464e-58
3.3885355892788e-58
2.2923448861728e-59
6.8077412123245e-59
4.6004242469976e-60
1.3664378125461e-59
9.1382580345799e-61
2.7444101017616e-60
2.0759383085139e-61
5.3632326486015e-61
1.4764457923885e-61
0
0
0
0
0
0
0
0
0
0
0
0
4.2491784724435e-15
2.0918800719287e-15
1.0879497641268e-13
5.2646571712688e-14
1.4261165586267e-12
6.9678434429629e-13
1.275565521739e-11
7.1663247085291e-12
7.2600365798764e-11
4.6324071833176e-11
3.4768152224681e-10
2.048589826455e-10
2.1458435450962e-09
1.0848087504692e-09
1.7317224815268e-08
8.4030867477501e-09
1.0419898176581e-07
6.4199326566151e-08
2.4502473630313e-07
2.4099525495057e-07
2.8701199848644e-07
4.0671169001597e-07
2.8175659660457e-07
4.1730945602297e-07
2.2244273372601e-07
3.6798623395578e-07
1.2732785153258e-07
2.555889836879e-07
4.0817432325552e-08
1.163262506439e-07
6.3157069284737e-09
2.9156379878972e-08
8.4762292511408e-10
4.2548007770878e-09
1.5218864488267e-10
6.9604758398118e-10
2.8498546611255e-11
1.2844231360421e-10
5.2547121918856e-12
2.3846237477319e-11
9.6195942813038e-13
4.3963083545504e-12
1.9719574131139e-13
7.8602689472059e-13
5.6502933210558e-14
1.4717187628169e-13
2.1172641010158e-14
3.74369952692e-14
8.3584907177379e-15
1.3615174565419e-14
3.315413588122e-15
5.4251042010717e-15
1.2326054627386e-15
2.1271713538166e-15
3.9860548379413e-16
7.5805896297486e-16
1.1010912792531e-16
2.3419005005542e-16
2.7464412553932e-17
6.3557220148653e-17
6.6536279716501e-18
1.6040425070298e-17
1.6154189482935e-18
3.950844128661e-18
3.9163012350317e-19
9.6548400003448e-19
9.3940520621142e-20
2.3380900329436e-19
2.2236850938398e-20
5.5941447495133e-20
5.2034393285428e-21
1.3222731011741e-20
1.2061953016552e-21
3.0922104362107e-21
2.7732560312203e-22
7.1648188749723e-22
6.328685189493e-23
1.6465171154181e-22
1.4342854660819e-23
3.7555243610267e-23
3.2299029665959e-24
8.5071892276551e-24
7.2308135352226e-25
1.9149179989087e-24
1.6099588484812e-25
4.2852110872592e-25
3.5664452678877e-26
9.5375306237876e-26
7.8631095469022e-27
2.1120460305492e-26
1.7259196994914e-27
4.6549871127891e-27
3.7725134079783e-28
1.0214332393129e-27
8.2135343465624e-29
2.2319968842756e-28
1.7816145209264e-29
4.8581813673091e-29
3.8509556233043e-30
1.053525608492e-29
8.2960925564236e-31
2.276637463552e-30
1.7815644384193e-31
4.9034164122898e-31
3.8143368797222e-32
1.0527661559773e-31
8.1430592123019e-33
2.2535105022965e-32
1.7336601883227e-33
4.8099758620275e-33
3.681296687635e-34
1.0238546841637e-33
7.7973492572204e-35
2.1736928881008e-34
1.6475854559059e-35
4.6033190579643e-35
3.4733304831983e-36
9.7252824364039e-36
7.3060237288446e-37
2.0499052921608e-36
1.5335217582808e-37
4.311269856272e-37
3.2122361730776e-38
9.0480157261751e-38
6.7153137855583e-39
1.8950156822764e-38
1.401190503095e-39
3.9611025474791e-39
2.9182938989101e-40
8.264065431521e-40
6.0672114893091e-41
1.7209751167702e-40
1.259224863535e-41
3.5775506247511e-41
2.6091310071563e-42
7.4242571648051e-42
5.3974672711142e-43
1.538156509842e-42
1.1148272690173e-43
3.1816422654004e-43
2.299160915348e-44
6.570936488159e-44
4.7347289546087e-45
1.3550302566065e-44
9.7365171171601e-46
2.7902054693322e-45
1.9994602851658e-46
5.737299983662e-46
4.1005264705202e-47
1.1780966624837e-46
8.3984744234529e-48
2.4158683675384e-47
1.7179505479513e-48
4.9476706343325e-48
3.509823002943e-49
1.0119963168042e-48
7.1620650634836e-50
2.0673904155335e-49
1.4597664313903e-50
4.2183791793722e-50
2.971895607317e-51
8.597294590799e-51
6.0436771687596e-52
1.7501853191862e-51
1.2277175099925e-52
3.5589732179887e-52
2.491360645429e-53
7.229292084341e-53
5.0504110637146e-54
1.4669274257659e-53
1.0227733993184e-54
2.9735433416718e-54
2.0692114644927e-55
6.0214802048357e-55
4.18227751986e-56
1.2181639853861e-55
8.4452685659843e-57
2.4620191308684e-56
1.7037381076312e-57
4.9713182884314e-57
3.435774989609e-58
1.0028117816476e-57
6.8580597981441e-59
2.0239311299362e-58
1.5655716019322e-59
3.9753849718113e-59
1.0999203731825e-59
0
0
0
0
0
0
0
0
0
0
1.7873884005772e-15
8.6123867825263e-16
6.4298787697264e-14
2.9924283296736e-14
9.8769034251833e-13
4.2974570812243e-13
1.196630105753e-11
5.0543419981197e-12
1.1564630100266e-10
5.315504594933e-11
7.9501818861733e-10
4.2139615938495e-10
3.8724630373397e-09
2.2627329790755e-09
1.6807370518721e-08
9.2575745498672e-09
8.8204011493011e-08
4.2294284606301e-08
5.776901467825e-07
2.6069834782317e-07
3.0174296259441e-06
1.8054805123669e-06
5.6720374448524e-06
6.4145424064118e-06
5.5521138809828e-06
8.2103997998008e-06
4.4564789889665e-06
7.3827293616959e-06
2.6736476443136e-06
5.2730667008242e-06
9.2086540578267e-07
2.51699820179e-06
1.4750900668234e-07
6.5846269495717e-07
1.9327630936702e-08
9.6205097701342e-08
3.4785116372152e-09
1.6004732200554e-08
6.649636023219e-10
2.9885656615327e-09
1.2499091602131e-10
5.6273035508955e-10
2.3457340891215e-11
1.0572985617835e-10
4.3828667043252e-12
1.9824435143042e-11
8.2343662768734e-13
3.6991491230344e-12
1.8944695377484e-13
6.7187378904922e-13
6.7530767975712e-14
1.3989469373907e-13
3.104962430749e-14
4.5845043416099e-14
1.3857702307953e-14
2.008839592633e-14
5.4515327945789e-15
8.5984169047892e-15
1.8089002068192e-15
3.2322453918845e-15
5.1073683127673e-16
1.033823168391e-15
1.3088133531119e-16
2.8925213785044e-16
3.2533668099411e-17
7.5109981923418e-17
8.0589634382395e-18
1.8947232702697e-17
1.9856044511903e-18
4.7209726678425e-18
4.8338687105779e-19
1.1626606380394e-18
1.1606591220722e-19
2.8253637839422e-19
2.7530360099732e-20
6.7766983250066e-20
6.4635107286727e-21
1.6067100824187e-20
1.5039629733008e-21
3.7711806146952e-21
3.4711844187031e-22
8.7723872371583e-22
7.952040867072e-23
2.0240567209134e-22
1.8092573914668e-23
4.6354879107619e-23
4.0904954070171e-24
1.0543886537145e-23
9.1941065778787e-25
2.3832525231785e-24
2.0553246637957e-25
5.3555752155557e-25
4.5713791358488e-26
1.1969809000108e-25
1.0119322893556e-26
2.6617751683173e-26
2.23007752104e-27
5.8911418753089e-27
4.8940349667895e-28
1.2980693277366e-27
1.0697842247474e-28
2.8482649172121e-28
2.329706725791e-29
6.2251512416516e-29
5.0555439596439e-30
1.3555014239986e-29
1.0933883296624e-30
2.9411410051614e-30
2.3571800889357e-31
6.3602692478829e-31
5.0662782269228e-32
1.3710412286731e-31
1.0857361667579e-32
2.9465021553265e-32
2.3203583292185e-33
6.3140068036392e-33
4.9457673717842e-34
1.3492785615208e-33
1.0514990559839e-34
2.8757337044391e-34
2.2301086789299e-35
6.1135672913019e-35
4.7187552201223e-36
1.2965369500268e-35
9.9621424532125e-37
2.7432251586879e-36
2.0986451702648e-37
5.7911367184518e-37
4.4118533045605e-38
1.2199132472967e-37
9.2561760513183e-39
2.5644340215464e-38
1.9382127275135e-39
5.3800234626647e-39
4.0509753466934e-40
1.1265165085309e-39
8.451494041158e-41
2.3544021157641e-40
1.7601473033296e-41
4.9118005655818e-41
3.6595753406233e-42
1.0229246425009e-41
7.596293826034e-43
2.1267372138381e-42
1.5742882013842e-43
4.4144281798065e-43
3.2576099234265e-44
9.1484494022703e-44
6.7307919840028e-45
1.8930139115617e-44
1.3886872403215e-45
3.9112289900308e-45
2.8610928092355e-46
8.0694639887878e-46
5.8866182089278e-47
1.6625171310153e-46
1.209546666192e-47
3.4205403720967e-47
2.482092145291e-48
7.0282440517562e-48
5.0870577697867e-49
1.4422418905747e-48
1.0413177560501e-49
2.95585745114e-49
2.1290283263454e-50
6.0505837613329e-50
4.3478476670052e-51
1.237066866782e-50
8.8689973385622e-52
2.5262963884104e-51
1.8071498052931e-52
5.1532740536782e-52
3.6782803752136e-53
1.0500308597492e-52
7.4788997770766e-54
2.1372354356845e-53
1.5190899957028e-54
4.3455554221847e-54
3.0824297091135e-55
8.8265596866053e-55
6.2483329043774e-56
1.7910304934474e-55
1.2660057751587e-56
3.6304064076217e-56
2.5390326271617e-57
7.3619726218058e-57
5.8239077605289e-58
1.4531937712173e-57
4.0406742444198e-58
0
0
0
0
0
0
0
0
0
0
1.8600760286152e-14
8.1362277771397e-15
4.4215285101123e-13
1.8214629438061e-13
6.5436522801413e-12
2.4642720861769e-12
7.5692075997198e-11
2.9546362875818e-11
6.8260685204346e-10
2.8482540629218e-10
4.8387054034861e-09
2.2111222554729e-09
2.6616947946557e-08
1.3575214289916e-08
1.1815969666027e-07
6.4296358684923e-08
4.9210389779863e-07
2.5725155321578e-07
2.3144033212168e-06
1.0977591472031e-06
1.2537883627484e-05
5.7780144141892e-06
5.1302674259361e-05
3.1732753008436e-05
9.9095899249049e-05
0.00012089762921467
9.6609879050281e-05
0.00016431367220751
6.2622463191811e-05
0.00013332457561651
2.0914136520705e-05
6.246345566543e-05
2.8152861420537e-06
1.3770065820889e-05
3.8271510610333e-07
1.9075070393062e-06
7.0753677873899e-08
3.2385735208589e-07
1.359249028424e-08
6.1060203084615e-08
2.5660997511596e-09
1.1539825428457e-08
4.8435683776162e-10
2.1781816470566e-09
9.1404945619275e-11
4.110587637951e-10
1.723194418781e-11
7.7550249729211e-11
3.2513523025679e-12
1.4596296993827e-11
6.5937975326271e-13
2.7226388474223e-12
1.909650402097e-13
5.3342588417586e-13
8.6279113018479e-14
1.3867536677258e-13
4.1567119708836e-14
5.7408986615514e-14
1.7435352699931e-14
2.5875158841937e-14
5.9937419861354e-15
1.0188091626378e-14
1.7173795092627e-15
3.3439761961187e-15
4.4460529424922e-16
9.4968356505289e-16
1.1208136935389e-16
2.5017250907606e-16
2.818210800447e-17
6.4093167206478e-17
7.0324258997692e-18
1.6199552090432e-17
1.7306233559957e-18
4.0391260151047e-18
4.1976838870735e-19
9.9251183189602e-19
1.005528791066e-19
2.405711808965e-19
2.3832723940029e-20
5.7615323302824e-20
5.596069160127e-21
1.3654091662329e-20
1.3028643032375e-21
3.2055799024313e-21
3.0097853699019e-22
7.4619799540682e-22
6.9035040745108e-23
1.7235686126699e-22
1.5730610988318e-23
3.9528438547735e-23
3.5626820728606e-24
9.0061778662554e-24
8.0232715366455e-25
2.0395464489619e-24
1.797358721131e-25
4.5927804183475e-25
4.0065882226399e-26
1.028802781309e-25
8.8900409121653e-27
2.293243958542e-26
1.9639983299508e-27
5.0881747312517e-27
4.3211022498329e-28
1.1240513984371e-27
9.4702594399802e-29
2.4730340292909e-28
2.067912968633e-29
5.4198998007024e-29
4.4997376097664e-30
1.1834733639065e-29
9.7589128631126e-31
2.5752120826921e-30
2.1098121709567e-31
5.5850787864462e-31
4.5475523696172e-32
1.2074688831169e-31
9.7737648660495e-33
2.6026524803448e-32
2.0948394973458e-33
5.5938204097505e-33
4.4781113911528e-34
1.1989669560395e-33
9.5486376098762e-35
2.5630831462046e-34
2.0311138799202e-35
5.4653997373254e-35
4.3103703428032e-36
1.1625958300468e-35
9.1268486795446e-37
2.4673125850195e-36
1.9283647910442e-37
5.224522090043e-37
4.0658707393085e-38
1.1039057123485e-37
8.5555105273625e-39
2.3276317507432e-38
1.7967862028345e-39
4.8980738022534e-39
3.7664605600574e-40
1.0287152748231e-39
7.8810460630489e-41
2.1565137593805e-40
1.6461642419514e-41
4.5125629730916e-41
3.4326175388619e-42
9.4261358530862e-42
7.1460078252941e-43
1.9656561090631e-42
1.4852825708651e-43
4.0923015507446e-43
3.0823563689847e-44
8.5062007157172e-44
6.3871103518326e-45
1.7653553389883e-44
1.3215771077334e-45
3.6582784685022e-45
2.730643155431e-46
7.569865788136e-46
5.6342844654366e-47
1.5641708919886e-46
1.1609946753699e-47
3.227615681938e-47
2.3892129854344e-48
6.6511580066688e-48
4.910520807191e-49
1.3688191238419e-48
1.0080046429617e-49
2.8134750109852e-49
2.0666809614555e-50
5.7756713982295e-50
4.2322698868831e-51
1.1842351026578e-50
8.6571477591002e-52
2.425283355798e-51
1.7688455693368e-52
4.9612222155551e-52
3.6101908843923e-53
1.0137445927979e-52
7.3605001874482e-54
2.0691576384941e-53
1.4990635367921e-54
4.2188743760494e-54
3.0514268830441e-55
8.5924115708962e-55
6.1483071297033e-56
1.7505722797178e-55
1.4169111871023e-56
3.4723385898795e-56
9.7019393217904e-57
0
0
0
0
0
0
0
0
0
9.7337683579109e-32
9.0059232585159e-14
3.4705223527211e-14
2.1360000689625e-12
7.2716121224656e-13
3.352864923832e-11
1.1141407931039e-11
3.8181259218956e-10
1.3491007989712e-10
3.3353645028756e-09
1.2688143134118e-09
2.3129599933874e-08
9.5913369572122e-09
1.3056110653519e-07
5.9559950160364e-08
6.1839005558077e-07
3.0692558324802e-07
2.6082772488968e-06
1.344992261219e-06
1.0770370639997e-05
5.4454505149576e-06
4.7917510188761e-05
2.3230233729797e-05
0.00022182107379184
0.00011255028348327
0.0009641781253675
0.00061431001131615
0.0017392674125987
0.0016886094920167
0.0014606009106231
0.0017309897754062
0.00044447159800812
0.0012429123858931
5.4397140956895e-05
0.00031852518885936
8.2111414625373e-06
4.164188359248e-05
1.5323631213086e-06
6.9988859634232e-06
2.8967380766492e-07
1.3062698202092e-06
5.4683766548883e-08
2.4611424243695e-07
1.0325019497856e-08
4.6453744085253e-08
1.9493215884941e-09
8.7703917261479e-09
3.679198618506e-10
1.6557666813778e-09
6.9368242838079e-11
3.1256759015915e-10
1.3041732052135e-11
5.8950184368092e-11
2.4887150998439e-12
1.1087935946053e-11
5.9219350792201e-13
2.0520706415017e-12
2.2988141072918e-13
4.5314916634758e-13
1.1485883450392e-13
1.6014081481473e-13
4.7097515917267e-14
6.938974553843e-14
1.540072297346e-14
2.6187999860068e-14
4.3536712728173e-15
8.3673525603527e-15
1.1450736465891e-15
2.3759038366569e-15
2.9422454494286e-16
6.3444046513516e-16
7.4911128742757e-17
1.648101752631e-16
1.8851036410804e-17
4.2105062764589e-17
4.6744948545883e-18
1.0591964232965e-17
1.1426648609451e-18
2.6245095094086e-18
2.7586617494047e-19
6.413892331587e-19
6.5887219095261e-20
1.5485221832736e-19
1.5586219138858e-20
3.6987566252341e-20
3.6551320393803e-21
8.7502847195432e-21
8.5037861837267e-22
2.052146886312e-21
1.9640481562902e-22
4.7746893745928e-22
4.5057845193731e-23
1.1028517226649e-22
1.027268376528e-23
2.5302989635101e-23
2.3285371326408e-24
5.7693299430465e-24
5.2497292817503e-25
1.3078798943962e-24
1.1775938823098e-25
2.9489519400945e-25
2.6290197082073e-26
6.6156868166975e-26
5.8432325193619e-27
1.4771481426657e-26
1.2932523606174e-27
3.2834930950133e-27
2.8509122470084e-28
7.268095056876e-28
6.2610292661534e-29
1.6024222469586e-28
1.3700992779749e-29
3.5196206281794e-29
2.9879891776226e-30
7.7030050407644e-30
6.4952649118866e-31
1.6801422049001e-30
1.4075711597652e-31
3.6527796147929e-31
3.0413011968175e-32
7.9169356368193e-32
6.5526909414879e-33
1.7108297527714e-32
1.4080004809432e-33
3.686616852253e-33
3.0175671457558e-34
7.9226840638049e-34
6.4510002365101e-35
1.6981962144222e-34
1.3757996516331e-35
3.63094338843e-35
2.9273911241991e-36
7.7447811003892e-36
6.2149938748943e-37
1.6481480349622e-36
1.3166484041485e-37
3.4995935975566e-37
2.7835614789175e-38
7.4149470391957e-38
5.8730617588231e-39
1.5678345373929e-38
1.2367735985747e-39
3.3084529277642e-39
2.5995925340104e-40
6.9680516209124e-40
5.454260449564e-41
1.4648290598303e-40
1.1423697557481e-41
3.073815369558e-41
2.3885877827549e-42
6.438853547539e-42
4.9861079879611e-43
1.3464886259087e-42
1.0391764618091e-43
2.8111399396084e-43
2.1624408334688e-44
5.8596145111323e-44
4.4930959151759e-45
1.2195021831983e-44
9.32206209003e-46
2.5342081065298e-45
1.9313484121026e-46
5.2585552313452e-46
3.995841969641e-47
1.0896136992874e-46
8.2560249673881e-48
2.2546405948996e-47
1.7035857300398e-48
4.6590429204065e-48
3.5107663764687e-49
9.6149272782727e-49
7.2260146320016e-50
1.9817087859358e-49
1.4854846426169e-50
4.0793618526542e-50
3.0501614817768e-51
8.3871931051521e-51
6.2556897973786e-52
1.7223681451597e-51
1.2815566030006e-52
3.5329100224096e-52
2.6224694392003e-53
7.2385229122332e-53
5.363188268574e-54
1.4813499591911e-53
1.0857146981525e-54
3.032294387038e-54
2.5140001582549e-55
6.0444130060907e-55
1.6971256992876e-55
0
0
0
0
0
0
0
0
8.8486907049707e-32
8.8507765294022e-33
2.9092350460409e-13
9.1913833964147e-14
8.0315559815199e-12
2.2414278185784e-12
1.3143889835135e-10
3.7566670665388e-11
1.5126107906916e-09
4.5869384279443e-10
1.346266116227e-08
4.3831629720643e-09
9.6365349330711e-08
3.4369116475438e-08
5.5817556772175e-07
2.231577972337e-07
2.7119258073874e-06
1.2093949970201e-06
1.1825292244295e-05
5.6806827399656e-06
4.9452920547072e-05
2.4334649515893e-05
0.00021536227315679
0.00010688307213485
0.0011136176471012
0.00055458950275967
0.0036892154060332
0.0018662659129454
0.0045210442349785
0.0024161036426628
0.0042257117746868
0.0024400221536672
0.0032484308781455
0.002418964355491
0.001161594248392
0.0019641017461331
0.00013717622486786
0.00078420367980161
2.1238273774944e-05
0.00010759765276634
4.0589266201299e-06
1.8327255728788e-05
7.7780758121648e-07
3.480238191362e-06
1.4915826219243e-07
6.6644211770456e-07
2.859095556643e-08
1.2774449952824e-07
5.476232374548e-09
2.4477690957795e-08
1.048028761606e-09
4.6870728017896e-09
2.0032809740067e-10
8.9687237318198e-10
3.8203928184406e-11
1.7145348509681e-10
7.3300366714166e-12
3.2662449731906e-11
1.6067231101642e-12
6.1576875982985e-12
5.4304819718112e-13
1.2899756675392e-12
2.4629941983859e-13
3.7840942490119e-13
9.6636258051895e-14
1.4634972630695e-13
3.1024772733551e-14
5.2689355510585e-14
8.75174714598e-15
1.6503668622498e-14
2.3265402950185e-15
4.6815186181037e-15
6.0570393455423e-16
1.2612776226661e-15
1.5571488340519e-16
3.3100599575305e-16
3.9464838332538e-17
8.5296620735293e-17
9.8509642107384e-18
2.1619709727733e-17
2.4245196062958e-18
5.3961566237354e-18
5.8942363560806e-19
1.3284031243922e-18
1.4175517928342e-19
3.2306858241148e-19
3.3763408097245e-20
7.7726910245088e-20
7.9713870029304e-21
1.8519676480538e-20
1.8669310217359e-21
4.3739133734011e-21
4.3402360095715e-22
1.0247367099506e-21
1.0021590879551e-22
2.3831128588561e-22
2.2994017291515e-23
5.5044580892478e-23
5.2449180738285e-24
1.2633935086742e-23
1.1898096506668e-24
2.8827538138294e-24
2.6852345603832e-25
6.5416979327864e-25
6.030987530221e-26
1.4768567892654e-25
1.348398412484e-26
3.3180784882303e-26
3.0018031688325e-27
7.4209132189451e-27
6.6555029802861e-28
1.6525742447643e-27
1.4699614632181e-28
3.665202595705e-28
3.23475481244e-29
8.0976689856388e-29
7.0935598888575e-30
1.7825059689376e-29
1.5504065116511e-30
3.9101009597511e-30
3.3779327027943e-31
8.5487367822569e-31
7.3373832772696e-32
1.8631099622636e-31
1.5891781968463e-32
4.048166097999e-32
3.4323978125084e-33
8.7703680667253e-33
7.3937566720787e-34
1.8948263685259e-33
1.5886231274656e-34
4.0828367650889e-34
3.4049249071151e-35
8.7748820237203e-35
7.2805668971141e-36
1.8812650027411e-35
1.5532146752426e-36
4.0237238551681e-36
3.3062964985249e-37
8.586447170896e-37
7.0231100365647e-38
1.8282744380366e-37
1.4887643616094e-38
3.8845899218903e-38
3.1496404607504e-39
8.2367587638925e-39
6.6506275245598e-40
1.7430290228654e-39
1.4017078690799e-40
3.6814432985083e-40
2.9489735220747e-41
7.761103449322e-41
6.1933648339862e-42
1.6332247111172e-41
1.2985170173108e-42
3.4309113761723e-42
2.7180376654065e-43