/*--------------------------------*- C++ -*----------------------------------*\
  =========                 |
  \\      /  F ield         | OpenFOAM: The Open Source CFD Toolbox
   \\    /   O peration     | Website:  https://openfoam.org
    \\  /    A nd           | Version:  7
     \\/     M anipulation  |
\*---------------------------------------------------------------------------*/
FoamFile
{
    version     2.0;
    format      ascii;
    class       volScalarField;
    location    "0.05";
    object      T;
}
// * * * * * * * * * * * * * * * * * * * * * * * * * * * * * * * * * * * * * //

dimensions      [0 0 0 1 0 0 0];

internalField   nonuniform List<scalar> 
12225
(
1.00689
1.0041
1.00171
1.00089
1.00043
1.00012
0.999964
0.999897
0.999864
0.99984
0.999817
0.999773
0.99967
0.999404
0.998732
0.997104
0.992849
0.982685
0.995136
0.994812
0.996745
0.998334
0.999127
0.999464
0.999644
0.999763
0.999837
0.999875
0.999887
0.999866
0.999777
0.999528
0.998885
0.997332
0.993464
0.984406
0.999619
1.00005
1.00023
1.00028
1.0002
1.00008
0.999991
0.999952
0.999931
0.999913
0.999889
0.999847
0.999747
0.999502
0.998898
0.99747
0.994094
0.986818
1.00032
1.00017
0.999777
0.999749
0.999819
0.999835
0.999837
0.99985
0.999863
0.999867
0.999861
0.999831
0.999746
0.999527
0.998986
0.99773
0.994918
0.989259
1.00014
0.999947
0.999658
0.999701
0.999818
0.999857
0.999862
0.999871
0.99988
0.999883
0.999875
0.999847
0.999768
0.999569
0.999093
0.998023
0.995752
0.991457
1.00002
0.999951
0.999769
0.999773
0.999847
0.999872
0.999872
0.999877
0.999883
0.999885
0.999878
0.999852
0.999781
0.999607
0.999201
0.998319
0.996537
0.993335
0.999995
1
0.999864
0.999822
0.999858
0.999877
0.999879
0.999882
0.999887
0.999889
0.999883
0.99986
0.999798
0.99965
0.999314
0.998608
0.997242
0.99489
0.999995
1.00002
0.999917
0.999858
0.999872
0.999888
0.999889
0.999891
0.999895
0.999896
0.999891
0.99987
0.999817
0.999695
0.999424
0.998874
0.997851
0.996147
0.999995
1.00002
0.999951
0.999894
0.999893
0.999902
0.999902
0.999902
0.999904
0.999904
0.999899
0.999881
0.999837
0.999738
0.999527
0.999111
0.99836
0.997143
0.999995
1.00002
0.999976
0.999926
0.999916
0.999918
0.999916
0.999915
0.999915
0.999914
0.999909
0.999893
0.999858
0.999781
0.999619
0.999312
0.998773
0.997916
0.999996
1.00002
0.999992
0.999953
0.999938
0.999934
0.999931
0.999927
0.999926
0.999925
0.999919
0.999907
0.999879
0.999819
0.999699
0.999478
0.999099
0.998508
0.999997
1.00001
1
0.999971
0.999954
0.999949
0.999944
0.99994
0.999937
0.999934
0.99993
0.999919
0.999897
0.999851
0.999762
0.999601
0.999331
0.998913
0.999997
1.00001
1.00001
0.999984
0.999968
0.999962
0.999957
0.999952
0.999948
0.999944
0.999941
0.999932
0.999914
0.99988
0.999815
0.9997
0.999511
0.999222
0.999997
1.00001
1.00001
0.999993
0.999981
0.999974
0.999968
0.999964
0.99996
0.999956
0.999952
0.999946
0.999932
0.999907
0.999864
0.999787
0.999664
0.999479
0.999998
1.00001
1.00001
1
0.999991
0.999985
0.999981
0.999977
0.999972
0.999968
0.999964
0.999959
0.99995
0.999934
0.999906
0.999859
0.999785
0.999677
0.999998
1.00001
1.00001
1
0.999998
0.999994
0.999991
0.999988
0.999983
0.999979
0.999975
0.999972
0.999967
0.999957
0.999939
0.999912
0.999873
0.999815
0.999998
1.00001
1.00001
1.00001
1
0.999999
0.999998
0.999996
0.999992
0.999989
0.999985
0.999981
0.999978
0.999974
0.999965
0.99995
0.999931
0.999903
0.999999
1.00001
1.00001
1.00001
1
1
1
0.999998
0.999995
0.999993
0.999993
0.999991
0.999987
0.999983
0.999979
0.999974
0.999965
0.999953
1
1.00001
1.00001
1.00001
1
1
1
0.999999
0.999998
0.999996
0.999994
0.999992
0.99999
0.999987
0.999986
0.999983
0.999979
0.999973
0.999999
1.00001
1.00001
1.00001
1.00001
1
0.999998
0.999996
0.999993
0.999991
0.999989
0.999987
0.999985
0.999982
0.999981
0.999978
0.999975
0.999973
0.999997
1.00001
1.00001
1.00001
1
0.999998
0.999993
0.999988
0.999985
0.999982
0.999979
0.999976
0.999973
0.999972
0.99997
0.999968
0.999967
0.999965
0.999997
1.00001
1.00002
1.00001
0.999995
0.999988
0.999982
0.999975
0.999969
0.999965
0.999964
0.999963
0.99996
0.999959
0.999958
0.999958
0.999957
0.999955
0.999996
1.00003
1.00003
0.999996
0.999972
0.999966
0.999961
0.999956
0.999952
0.999949
0.999948
0.999947
0.999946
0.999945
0.999945
0.999944
0.999944
0.999944
0.999989
1.00005
1.00004
0.999983
0.999948
0.999938
0.999932
0.999929
0.999929
0.999931
0.999932
0.999933
0.999932
0.999933
0.999934
0.999934
0.999935
0.999935
0.99999
1.00004
0.999992
0.999937
0.999931
0.999929
0.999917
0.999909
0.999908
0.99991
0.999912
0.999915
0.999917
0.999918
0.999919
0.999921
0.999923
0.999925
1.00013
1.00009
0.999825
0.999756
0.999837
0.999896
0.999909
0.999912
0.999916
0.999918
0.99992
0.999921
0.999922
0.999922
0.999923
0.999924
0.999925
0.999926
1.0005
1.00053
0.999952
0.999665
0.999667
0.999718
0.999754
0.999789
0.99982
0.999844
0.999861
0.999875
0.999885
0.999893
0.9999
0.999905
0.999909
0.999915
1.00004
1.0008
1.00096
1.0008
1.00056
1.00034
1.00018
1.00009
1.00003
0.999996
0.99997
0.999954
0.999943
0.999935
0.99993
0.999925
0.999921
0.999921
0.994604
0.993791
0.995838
0.997661
0.998662
0.999144
0.999416
0.999594
0.99971
0.999782
0.999829
0.999863
0.999887
0.999905
0.999918
0.999928
0.999933
0.99993
1.00635
1.00419
1.00178
1.00096
1.00054
1.00023
1.00005
0.999977
0.999939
0.999915
0.9999
0.999892
0.999888
0.999886
0.999885
0.999886
0.999888
0.999899
0.501874
0.501838
0.501731
0.501573
0.501373
0.50113
0.500842
0.500511
0.500139
0.499729
0.499282
0.498799
0.498281
0.497731
0.497151
0.496543
0.49591
0.495255
0.494581
0.493892
0.493191
0.492482
0.491768
0.491054
0.490343
0.489639
0.488944
0.488261
0.487592
0.48694
0.486317
0.485744
0.485271
0.484986
0.484728
0.484377
0.484061
0.483748
0.483456
0.483189
0.482932
0.482743
0.482647
0.482568
0.482546
0.482613
0.482723
0.482886
0.483099
0.483363
0.483674
0.484033
0.484437
0.484886
0.485377
0.485911
0.486484
0.487097
0.487746
0.488431
0.489149
0.4899
0.490681
0.491491
0.492327
0.493189
0.494073
0.494979
0.495905
0.496848
0.497808
0.498783
0.49977
0.500768
0.501776
0.502791
0.503814
0.504841
0.505872
0.506904
0.507938
0.508972
0.510004
0.511033
0.512059
0.513079
0.514094
0.515101
0.516101
0.517092
0.518074
0.519045
0.520005
0.520953
0.521888
0.522808
0.523713
0.5246
0.525473
0.526331
0.527173
0.527996
0.528802
0.529589
0.530356
0.531102
0.531828
0.532532
0.533214
0.533873
0.53451
0.535122
0.535709
0.536272
0.536809
0.537319
0.537803
0.538259
0.538686
0.539084
0.539452
0.53979
0.540096
0.540369
0.540609
0.540815
0.540987
0.541124
0.541224
0.541288
0.541315
0.541303
0.541252
0.541162
0.541031
0.540858
0.540643
0.540385
0.540083
0.539736
0.539344
0.538904
0.538416
0.537879
0.537291
0.536651
0.535959
0.535213
0.534413
0.533556
0.532643
0.531672
0.530643
0.529553
0.528402
0.52719
0.525915
0.524576
0.523172
0.521702
0.520164
0.518558
0.516876
0.51511
0.513262
0.51134
0.509346
0.507282
0.505145
0.502935
0.50065
0.498289
0.495853
0.49334
0.490755
0.488098
0.485398
0.482605
0.480004
0.476764
0.503184
0.503137
0.503044
0.502901
0.502712
0.502479
0.502202
0.501878
0.501509
0.501097
0.500643
0.500151
0.499624
0.499065
0.498476
0.49786
0.497221
0.496562
0.495886
0.495196
0.494497
0.493793
0.493088
0.492387
0.491696
0.49102
0.490365
0.489739
0.489145
0.488587
0.488063
0.487564
0.487079
0.48649
0.485858
0.485361
0.484947
0.484611
0.484343
0.484127
0.483975
0.483863
0.48376
0.483726
0.483763
0.483828
0.483938
0.484097
0.484305
0.484562
0.484868
0.48522
0.485618
0.486061
0.486547
0.487075
0.487642
0.488249
0.488892
0.489571
0.490284
0.491029
0.491804
0.492608
0.493439
0.494294
0.495173
0.496074
0.496995
0.497933
0.498888
0.499857
0.50084
0.501833
0.502837
0.503848
0.504866
0.50589
0.506917
0.507947
0.508977
0.510008
0.511037
0.512063
0.513086
0.514104
0.515116
0.516122
0.517119
0.518108
0.519088
0.520057
0.521014
0.52196
0.522893
0.523813
0.52472
0.525613
0.52649
0.527349
0.52819
0.529013
0.529818
0.530604
0.53137
0.532115
0.53284
0.533543
0.534224
0.534883
0.535518
0.536128
0.536715
0.537276
0.537812
0.53832
0.538802
0.539256
0.539681
0.540078
0.540444
0.540779
0.541082
0.541353
0.54159
0.541793
0.541962
0.542095
0.542193
0.542253
0.542276
0.54226
0.542205
0.542111
0.541975
0.541798
0.541578
0.541314
0.541007
0.540654
0.540255
0.539809
0.539315
0.538771
0.538176
0.537529
0.536829
0.536075
0.535267
0.534402
0.53348
0.5325
0.531461
0.530362
0.529202
0.527979
0.526693
0.525344
0.523929
0.522448
0.520899
0.519281
0.517594
0.515841
0.514017
0.512121
0.510152
0.50811
0.505995
0.503805
0.501539
0.499197
0.496778
0.494282
0.491713
0.489074
0.486387
0.483622
0.480985
0.477977
0.505892
0.505808
0.505696
0.505542
0.505341
0.505092
0.504794
0.504451
0.504063
0.503633
0.503162
0.502653
0.50211
0.501534
0.500929
0.500298
0.499644
0.49897
0.49828
0.497578
0.496867
0.496151
0.495435
0.494723
0.49402
0.493328
0.492651
0.491992
0.491351
0.490731
0.490133
0.489562
0.489025
0.488512
0.488025
0.487585
0.487188
0.486841
0.486548
0.486311
0.486133
0.486015
0.485948
0.485928
0.485952
0.486017
0.486128
0.486286
0.486492
0.486745
0.487045
0.487391
0.487782
0.488217
0.488695
0.489215
0.489774
0.490373
0.491008
0.491679
0.492384
0.493121
0.493889
0.494685
0.495509
0.496358
0.497231
0.498126
0.499041
0.499974
0.500924
0.50189
0.502868
0.503859
0.50486
0.50587
0.506886
0.507909
0.508936
0.509965
0.510997
0.512029
0.513059
0.514088
0.515114
0.516135
0.517151
0.518161
0.519164
0.520158
0.521143
0.522119
0.523083
0.524036
0.524977
0.525904
0.526817
0.527715
0.528598
0.529465
0.530315
0.531148
0.531962
0.532758
0.533534
0.534289
0.535024
0.535738
0.53643
0.537099
0.537745
0.538366
0.538963
0.539536
0.540082
0.540602
0.541094
0.541559
0.541995
0.542401
0.542778
0.543123
0.543437
0.543717
0.543964
0.544177
0.544355
0.544498
0.544604
0.544673
0.544704
0.544696
0.544649
0.544562
0.544433
0.544263
0.544049
0.543792
0.54349
0.543142
0.542748
0.542306
0.541815
0.541274
0.540682
0.540038
0.53934
0.538588
0.53778
0.536916
0.535994
0.535014
0.533975
0.532874
0.531712
0.530488
0.5292
0.527848
0.52643
0.524946
0.523395
0.521775
0.520088
0.518335
0.516514
0.514622
0.512658
0.510621
0.508509
0.506322
0.50406
0.50172
0.499303
0.496809
0.49424
0.491598
0.488902
0.486131
0.48345
0.480548
0.509941
0.509821
0.509682
0.509508
0.509286
0.509013
0.508691
0.508323
0.50791
0.507455
0.50696
0.506427
0.505861
0.505262
0.504635
0.503983
0.503308
0.502614
0.501905
0.501185
0.500457
0.499725
0.498994
0.498266
0.497546
0.496837
0.496143
0.495466
0.494809
0.494177
0.493572
0.492999
0.492461
0.491953
0.49148
0.49105
0.490662
0.490319
0.490023
0.489775
0.489577
0.489431
0.489334
0.489288
0.489292
0.489343
0.489442
0.489589
0.489784
0.490025
0.490313
0.490646
0.491024
0.491446
0.49191
0.492416
0.492962
0.493547
0.494168
0.494826
0.495518
0.496242
0.496997
0.497782
0.498595
0.499433
0.500295
0.501181
0.502087
0.503012
0.503955
0.504913
0.505886
0.506872
0.507869
0.508875
0.509889
0.51091
0.511936
0.512966
0.513999
0.515032
0.516066
0.517098
0.518129
0.519155
0.520177
0.521194
0.522204
0.523207
0.524201
0.525186
0.526161
0.527126
0.528078
0.529017
0.529943
0.530856
0.531753
0.532634
0.533499
0.534347
0.535177
0.535988
0.536781
0.537553
0.538305
0.539036
0.539745
0.540432
0.541096
0.541736
0.542351
0.542941
0.543506
0.544044
0.544555
0.545038
0.545492
0.545917
0.546311
0.546675
0.547006
0.547304
0.547568
0.547798
0.547993
0.548152
0.548274
0.548359
0.548405
0.548413
0.54838
0.548307
0.548192
0.548034
0.547833
0.547588
0.547298
0.546961
0.546578
0.546145
0.545664
0.545131
0.544547
0.54391
0.543219
0.542473
0.541671
0.540811
0.539894
0.538918
0.537881
0.536783
0.535624
0.534401
0.533114
0.531763
0.530345
0.528861
0.527309
0.52569
0.524002
0.522247
0.520423
0.518528
0.51656
0.51452
0.512405
0.510216
0.50795
0.505607
0.503186
0.500686
0.498109
0.495457
0.492744
0.489955
0.487228
0.484341
0.515323
0.515167
0.515003
0.514808
0.514564
0.514266
0.513916
0.513519
0.513077
0.512591
0.512066
0.511504
0.510907
0.510279
0.509624
0.508943
0.508241
0.507521
0.506787
0.506043
0.505291
0.504537
0.503784
0.503035
0.502295
0.501567
0.500854
0.500161
0.499491
0.498846
0.498231
0.497648
0.497098
0.496583
0.496104
0.495667
0.495273
0.494923
0.494618
0.494361
0.494151
0.49399
0.493877
0.493813
0.493799
0.493833
0.493915
0.494045
0.494222
0.494446
0.494716
0.495032
0.495392
0.495795
0.496241
0.496728
0.497256
0.497822
0.498425
0.499065
0.499739
0.500446
0.501185
0.501954
0.502751
0.503575
0.504424
0.505296
0.50619
0.507104
0.508036
0.508985
0.50995
0.510928
0.511919
0.51292
0.51393
0.514948
0.515972
0.517002
0.518034
0.519069
0.520105
0.521141
0.522176
0.523208
0.524237
0.525261
0.52628
0.527292
0.528297
0.529293
0.530281
0.531257
0.532223
0.533177
0.534119
0.535046
0.53596
0.536858
0.537741
0.538608
0.539456
0.540287
0.5411
0.541893
0.542665
0.543417
0.544148
0.544856
0.545542
0.546204
0.546841
0.547454
0.548041
0.548602
0.549135
0.549641
0.550117
0.550565
0.550981
0.551367
0.551719
0.552039
0.552325
0.552576
0.552791
0.552971
0.553113
0.553217
0.553283
0.553309
0.553294
0.553238
0.55314
0.552999
0.552814
0.552584
0.552307
0.551985
0.551614
0.551194
0.550723
0.550202
0.549627
0.548999
0.548317
0.547578
0.546783
0.54593
0.545019
0.544047
0.543015
0.541921
0.540764
0.539543
0.538258
0.536907
0.53549
0.534006
0.532454
0.530833
0.529144
0.527386
0.525558
0.523659
0.521688
0.519644
0.517525
0.515331
0.513061
0.510713
0.508286
0.50578
0.503195
0.500531
0.4978
0.49499
0.492224
0.489303
0.522057
0.521871
0.521683
0.521467
0.521199
0.520873
0.520494
0.520065
0.51959
0.519071
0.518511
0.517914
0.517283
0.516621
0.515931
0.515218
0.514483
0.513733
0.512969
0.512195
0.511416
0.510636
0.509858
0.509085
0.508322
0.507573
0.506841
0.50613
0.505443
0.504782
0.504152
0.503554
0.50299
0.502462
0.501972
0.501522
0.501115
0.500751
0.500433
0.50016
0.499935
0.499757
0.499627
0.499545
0.499511
0.499524
0.499586
0.499694
0.499849
0.500051
0.500298
0.50059
0.500927
0.501307
0.501729
0.502192
0.502696
0.503238
0.503819
0.504435
0.505087
0.505772
0.506489
0.507237
0.508015
0.508819
0.50965
0.510504
0.511382
0.51228
0.513199
0.514135
0.515088
0.516055
0.517036
0.518029
0.519032
0.520045
0.521064
0.52209
0.523121
0.524156
0.525193
0.52623
0.527268
0.528305
0.529339
0.53037
0.531397
0.532418
0.533433
0.53444
0.535439
0.536429
0.537409
0.538378
0.539335
0.54028
0.541211
0.542128
0.54303
0.543916
0.544785
0.545637
0.546471
0.547286
0.548081
0.548856
0.54961
0.550343
0.551052
0.551739
0.552401
0.553039
0.553651
0.554236
0.554795
0.555326
0.555827
0.5563
0.556741
0.557151
0.557528
0.557872
0.558182
0.558457
0.558696
0.558898
0.559063
0.559189
0.559276
0.559323
0.559329
0.559293
0.559214
0.559091
0.558923
0.55871
0.558451
0.558143
0.557787
0.557381
0.556923
0.556414
0.555851
0.555233
0.55456
0.55383
0.553043
0.552197
0.551292
0.550325
0.549298
0.548207
0.547053
0.545835
0.544552
0.543202
0.541785
0.5403
0.538747
0.537125
0.535434
0.533673
0.531842
0.529939
0.527964
0.525916
0.523793
0.521595
0.51932
0.516967
0.514535
0.512022
0.509428
0.506752
0.504005
0.501173
0.498372
0.495396
0.530176
0.529968
0.529759
0.529521
0.529226
0.528872
0.528461
0.527998
0.527487
0.526932
0.526334
0.525699
0.52503
0.52433
0.523603
0.522853
0.522083
0.521297
0.5205
0.519694
0.518885
0.518075
0.517269
0.51647
0.515683
0.51491
0.514156
0.513424
0.512717
0.512037
0.511388
0.510772
0.51019
0.509645
0.509137
0.50867
0.508245
0.507863
0.507526
0.507234
0.506988
0.506789
0.506636
0.506531
0.506473
0.506461
0.506497
0.506578
0.506706
0.50688
0.507099
0.507363
0.50767
0.508021
0.508414
0.508848
0.509322
0.509835
0.510387
0.510975
0.511598
0.512256
0.512946
0.513668
0.51442
0.5152
0.516006
0.516839
0.517695
0.518573
0.519472
0.52039
0.521327
0.522279
0.523246
0.524226
0.525219
0.526221
0.527233
0.528252
0.529277
0.530308
0.531342
0.532379
0.533417
0.534455
0.535492
0.536527
0.537559
0.538587
0.53961
0.540627
0.541637
0.542638
0.543631
0.544614
0.545586
0.546546
0.547494
0.548429
0.549349
0.550254
0.551144
0.552017
0.552872
0.55371
0.554528
0.555326
0.556104
0.556861
0.557596
0.558307
0.558995
0.559658
0.560296
0.560908
0.561493
0.56205
0.562578
0.563077
0.563545
0.563981
0.564384
0.564754
0.565089
0.565389
0.565653
0.565879
0.566068
0.566218
0.566328
0.566398
0.566425
0.566411
0.566352
0.566249
0.566101
0.565906
0.565664
0.565373
0.565033
0.564642
0.564198
0.563702
0.563151
0.562545
0.561882
0.561162
0.560384
0.559546
0.558647
0.557687
0.556664
0.555578
0.554427
0.553212
0.55193
0.550581
0.549165
0.54768
0.546126
0.544502
0.542809
0.541045
0.539211
0.537304
0.535325
0.533273
0.531145
0.528943
0.526663
0.524305
0.521868
0.519348
0.516746
0.51406
0.511297
0.508444
0.50561
0.502576
0.539733
0.539508
0.539278
0.539016
0.538694
0.538309
0.537865
0.537366
0.536818
0.536223
0.535586
0.534911
0.534201
0.53346
0.532693
0.531903
0.531094
0.530271
0.529437
0.528597
0.527754
0.526912
0.526076
0.525248
0.524433
0.523634
0.522855
0.522098
0.521367
0.520665
0.519993
0.519354
0.518751
0.518183
0.517654
0.517165
0.516717
0.516312
0.515951
0.515634
0.515363
0.515137
0.514957
0.514823
0.514735
0.514693
0.514697
0.514747
0.514842
0.514982
0.515167
0.515397
0.515669
0.515985
0.516342
0.516741
0.517179
0.517657
0.518174
0.518727
0.519316
0.51994
0.520597
0.521286
0.522006
0.522755
0.523532
0.524335
0.525164
0.526016
0.52689
0.527784
0.528698
0.529629
0.530576
0.531539
0.532514
0.533501
0.534499
0.535506
0.536521
0.537542
0.538569
0.5396
0.540633
0.541668
0.542704
0.543739
0.544773
0.545804
0.546831
0.547853
0.54887
0.549879
0.550881
0.551875
0.552859
0.553832
0.554794
0.555744
0.55668
0.557603
0.55851
0.559402
0.560278
0.561135
0.561975
0.562795
0.563596
0.564376
0.565134
0.56587
0.566582
0.567271
0.567934
0.568571
0.569182
0.569765
0.570319
0.570844
0.571338
0.5718
0.572229
0.572625
0.572986
0.573311
0.5736
0.573851
0.574065
0.574239
0.574372
0.574465
0.574515
0.574522
0.574485
0.574402
0.574274
0.574098
0.573874
0.573601
0.573277
0.572902
0.572473
0.571991
0.571453
0.570859
0.570207
0.569497
0.568728
0.567898
0.567007
0.566053
0.565036
0.563955
0.562808
0.561595
0.560315
0.558968
0.557552
0.556067
0.554513
0.552888
0.551193
0.549427
0.547589
0.545679
0.543697
0.54164
0.539509
0.537302
0.535018
0.532656
0.530213
0.527688
0.525079
0.522383
0.519608
0.516736
0.513873
0.510784
0.55079
0.55055
0.550299
0.550011
0.54966
0.549242
0.548764
0.548228
0.547641
0.547006
0.546327
0.545609
0.544856
0.544072
0.543262
0.54243
0.541581
0.540717
0.539844
0.538966
0.538087
0.53721
0.53634
0.53548
0.534634
0.533806
0.532998
0.532213
0.531455
0.530725
0.530026
0.529361
0.52873
0.528136
0.52758
0.527064
0.526588
0.526155
0.525764
0.525417
0.525114
0.524856
0.524642
0.524474
0.524351
0.524273
0.52424
0.524252
0.524308
0.524409
0.524554
0.524742
0.524974
0.525247
0.525563
0.525919
0.526316
0.526752
0.527226
0.527737
0.528285
0.528868
0.529485
0.530134
0.530815
0.531526
0.532266
0.533033
0.533827
0.534645
0.535486
0.536349
0.537233
0.538136
0.539056
0.539993
0.540944
0.541909
0.542886
0.543874
0.544871
0.545876
0.546888
0.547906
0.548929
0.549955
0.550982
0.552011
0.55304
0.554068
0.555093
0.556115
0.557133
0.558145
0.559151
0.56015
0.561141
0.562122
0.563093
0.564054
0.565002
0.565937
0.566858
0.567765
0.568656
0.569531
0.570388
0.571227
0.572047
0.572846
0.573625
0.574382
0.575116
0.575827
0.576513
0.577174
0.577808
0.578414
0.578993
0.579541
0.58006
0.580546
0.581
0.58142
0.581805
0.582155
0.582468
0.582743
0.58298
0.583177
0.583334
0.583448
0.58352
0.583549
0.583532
0.58347
0.583361
0.583205
0.582999
0.582743
0.582436
0.582076
0.581663
0.581194
0.58067
0.580088
0.579448
0.578748
0.577989
0.577168
0.576284
0.575337
0.574326
0.57325
0.572108
0.570898
0.569622
0.568276
0.566862
0.565377
0.563823
0.562197
0.560501
0.558733
0.556893
0.55498
0.552994
0.550934
0.5488
0.54659
0.544302
0.541936
0.53949
0.536961
0.534346
0.531644
0.528858
0.525971
0.523086
0.519949
0.563419
0.563163
0.56289
0.562575
0.562192
0.561741
0.561226
0.560652
0.560023
0.559346
0.558623
0.55786
0.557062
0.556234
0.555379
0.554502
0.553609
0.552702
0.551788
0.550869
0.54995
0.549035
0.548128
0.547232
0.546352
0.545489
0.544648
0.543831
0.543041
0.54228
0.541549
0.540852
0.54019
0.539564
0.538976
0.538427
0.537918
0.53745
0.537024
0.536641
0.536301
0.536004
0.535752
0.535543
0.535378
0.535258
0.535181
0.535149
0.53516
0.535215
0.535313
0.535453
0.535637
0.535862
0.536128
0.536435
0.536782
0.537168
0.537592
0.538054
0.538553
0.539086
0.539655
0.540256
0.54089
0.541554
0.542248
0.542971
0.54372
0.544496
0.545296
0.546119
0.546964
0.547829
0.548713
0.549615
0.550534
0.551467
0.552414
0.553374
0.554345
0.555325
0.556314
0.557311
0.558313
0.559321
0.560332
0.561346
0.562362
0.563378
0.564394
0.565408
0.566419
0.567426
0.568429
0.569426
0.570416
0.571398
0.572371
0.573335
0.574288
0.57523
0.576159
0.577074
0.577975
0.57886
0.579729
0.580581
0.581414
0.582229
0.583023
0.583796
0.584547
0.585276
0.58598
0.586659
0.587313
0.587939
0.588538
0.589107
0.589646
0.590153
0.590628
0.59107
0.591477
0.591848
0.592183
0.59248
0.592738
0.592956
0.593133
0.593268
0.593361
0.593409
0.593412
0.593369
0.593278
0.59314
0.592951
0.592712
0.592421
0.592076
0.591677
0.591222
0.590711
0.590141
0.589513
0.588824
0.588074
0.587262
0.586386
0.585447
0.584442
0.583372
0.582234
0.581029
0.579755
0.578412
0.577
0.575517
0.573963
0.572337
0.57064
0.568871
0.56703
0.565115
0.563128
0.561066
0.558929
0.556717
0.554427
0.55206
0.549611
0.54708
0.544462
0.541756
0.538965
0.536067
0.533166
0.529992
0.5777
0.577429
0.577131
0.576786
0.57637
0.575882
0.575328
0.574713
0.574041
0.573319
0.57255
0.57174
0.570894
0.570017
0.569114
0.56819
0.567249
0.566297
0.565337
0.564374
0.563412
0.562455
0.561507
0.560572
0.559652
0.558751
0.557872
0.557018
0.556191
0.555393
0.554626
0.553892
0.553192
0.552529
0.551903
0.551315
0.550767
0.550258
0.549791
0.549366
0.548982
0.548641
0.548342
0.548087
0.547874
0.547704
0.547577
0.547493
0.547452
0.547453
0.547497
0.547583
0.54771
0.547879
0.548088
0.548337
0.548626
0.548954
0.54932
0.549724
0.550164
0.55064
0.55115
0.551694
0.552271
0.552879
0.553517
0.554185
0.554881
0.555604
0.556352
0.557124
0.55792
0.558737
0.559574
0.560431
0.561306
0.562197
0.563103
0.564024
0.564957
0.565902
0.566857
0.567821
0.568793
0.569772
0.570756
0.571745
0.572737
0.573731
0.574727
0.575722
0.576717
0.577709
0.578698
0.579684
0.580663
0.581637
0.582604
0.583562
0.584511
0.58545
0.586378
0.587293
0.588195
0.589083
0.589956
0.590813
0.591653
0.592475
0.593277
0.59406
0.594821
0.595561
0.596277
0.596969
0.597636
0.598276
0.598889
0.599474
0.600028
0.600552
0.601044
0.601502
0.601926
0.602315
0.602667
0.602981
0.603257
0.603493
0.603688
0.603841
0.603951
0.604016
0.604036
0.60401
0.603936
0.603813
0.60364
0.603416
0.603139
0.602808
0.602423
0.601981
0.601482
0.600923
0.600306
0.599627
0.598887
0.598084
0.597216
0.596284
0.595286
0.594222
0.59309
0.591889
0.59062
0.58928
0.58787
0.586389
0.584837
0.583213
0.581517
0.579748
0.577906
0.575991
0.574003
0.571941
0.569804
0.567591
0.565301
0.562933
0.560485
0.557954
0.555337
0.552631
0.549838
0.546935
0.544025
0.540824
0.593726
0.593436
0.593112
0.592733
0.592281
0.591753
0.591157
0.590496
0.589778
0.589006
0.588188
0.587327
0.586429
0.5855
0.584545
0.583569
0.582577
0.581574
0.580564
0.579553
0.578543
0.577539
0.576546
0.575565
0.574601
0.573657
0.572735
0.571838
0.570968
0.570128
0.569318
0.568541
0.567799
0.567092
0.566421
0.565789
0.565194
0.564639
0.564124
0.563649
0.563215
0.562822
0.562471
0.562161
0.561893
0.561667
0.561482
0.561339
0.561238
0.561178
0.561159
0.561181
0.561244
0.561348
0.561491
0.561674
0.561896
0.562156
0.562454
0.56279
0.563161
0.563569
0.564011
0.564487
0.564996
0.565536
0.566108
0.56671
0.56734
0.567998
0.568682
0.569392
0.570126
0.570882
0.571661
0.57246
0.573278
0.574114
0.574967
0.575835
0.576718
0.577615
0.578523
0.579442
0.58037
0.581307
0.582252
0.583203
0.584159
0.585118
0.586081
0.587046
0.588012
0.588977
0.589941
0.590903
0.591861
0.592815
0.593763
0.594704
0.595638
0.596564
0.59748
0.598385
0.599278
0.600159
0.601026
0.601878
0.602715
0.603534
0.604336
0.605119
0.605882
0.606624
0.607344
0.608041
0.608714
0.609361
0.609981
0.610574
0.611137
0.61167
0.612172
0.612641
0.613076
0.613477
0.613841
0.614168
0.614457
0.614706
0.614914
0.61508
0.615203
0.615282
0.615316
0.615303
0.615242
0.615133
0.614973
0.614761
0.614497
0.614178
0.613804
0.613374
0.612885
0.612338
0.61173
0.611061
0.61033
0.609535
0.608676
0.607751
0.60676
0.605702
0.604575
0.60338
0.602115
0.60078
0.599374
0.597897
0.596347
0.594726
0.593031
0.591264
0.589424
0.587511
0.585524
0.583463
0.581327
0.579116
0.576828
0.574463
0.572018
0.56949
0.566877
0.564174
0.561384
0.558483
0.555571
0.552354
0.611596
0.611287
0.610932
0.610516
0.610021
0.609449
0.608805
0.608094
0.607322
0.606496
0.605621
0.604703
0.603748
0.602761
0.601748
0.600714
0.599665
0.598606
0.597541
0.596475
0.595411
0.594355
0.593309
0.592278
0.591264
0.59027
0.589299
0.588353
0.587434
0.586545
0.585686
0.58486
0.584068
0.583311
0.582589
0.581904
0.581257
0.580648
0.580077
0.579546
0.579054
0.578602
0.57819
0.577819
0.577487
0.577196
0.576946
0.576735
0.576565
0.576435
0.576345
0.576295
0.576284
0.576313
0.576381
0.576487
0.576632
0.576814
0.577033
0.577289
0.577581
0.577909
0.578271
0.578666
0.579095
0.579556
0.580048
0.58057
0.581122
0.581702
0.582308
0.582942
0.5836
0.584282
0.584987
0.585713
0.58646
0.587227
0.588012
0.588814
0.589632
0.590464
0.591311
0.59217
0.59304
0.593921
0.594811
0.595709
0.596614
0.597525
0.598441
0.599361
0.600283
0.601207
0.602132
0.603056
0.603979
0.604899
0.605816
0.606728
0.607634
0.608533
0.609424
0.610306
0.611179
0.61204
0.61289
0.613726
0.614548
0.615354
0.616145
0.616917
0.617672
0.618406
0.61912
0.619812
0.620481
0.621125
0.621744
0.622336
0.6229
0.623435
0.623939
0.624411
0.624851
0.625256
0.625626
0.625959
0.626254
0.62651
0.626726
0.626901
0.627032
0.62712
0.627162
0.627159
0.627107
0.627007
0.626857
0.626655
0.6264
0.626091
0.625727
0.625305
0.624826
0.624287
0.623688
0.623028
0.622305
0.621518
0.620666
0.619749
0.618764
0.617713
0.616592
0.615403
0.614143
0.612813
0.611412
0.609939
0.608394
0.606776
0.605085
0.603322
0.601485
0.599575
0.597591
0.595534
0.593402
0.591195
0.588912
0.586552
0.584112
0.581591
0.578986
0.576291
0.57351
0.570616
0.56771
0.564488
0.631426
0.631092
0.630701
0.630241
0.629698
0.629073
0.628373
0.627603
0.62677
0.62588
0.62494
0.623956
0.622933
0.62188
0.6208
0.619701
0.618586
0.617463
0.616334
0.615206
0.614082
0.612965
0.611861
0.610771
0.6097
0.608649
0.607622
0.60662
0.605645
0.6047
0.603785
0.602903
0.602053
0.601238
0.600457
0.599713
0.599005
0.598334
0.5977
0.597105
0.596547
0.596028
0.595547
0.595105
0.594701
0.594336
0.59401
0.593723
0.593475
0.593265
0.593094
0.592961
0.592866
0.592809
0.59279
0.592808
0.592864
0.592956
0.593085
0.593249
0.593449
0.593683
0.593952
0.594254
0.594589
0.594956
0.595354
0.595782
0.59624
0.596727
0.597241
0.597782
0.598349
0.598941
0.599556
0.600194
0.600854
0.601535
0.602235
0.602954
0.603691
0.604443
0.605212
0.605994
0.60679
0.607598
0.608416
0.609245
0.610083
0.610929
0.611782
0.61264
0.613504
0.614371
0.615241
0.616112
0.616984
0.617855
0.618725
0.619592
0.620455
0.621314
0.622166
0.623012
0.623849
0.624678
0.625496
0.626303
0.627097
0.627878
0.628645
0.629395
0.630129
0.630844
0.631541
0.632216
0.632871
0.633502
0.634109
0.634691
0.635246
0.635772
0.63627
0.636737
0.637172
0.637574
0.637941
0.638273
0.638568
0.638824
0.639041
0.639217
0.639351
0.639442
0.639488
0.639488
0.639442
0.639347
0.639202
0.639005
0.638757
0.638454
0.638096
0.637681
0.637208
0.636676
0.636084
0.63543
0.634714
0.633934
0.633089
0.632178
0.631201
0.630156
0.629042
0.627858
0.626605
0.625281
0.623885
0.622418
0.620878
0.619266
0.617581
0.615823
0.613991
0.612087
0.610109
0.608057
0.605931
0.603731
0.601455
0.599104
0.596673
0.594163
0.591569
0.588887
0.586119
0.583238
0.580345
0.577128
0.653342
0.652977
0.652543
0.652031
0.651428
0.650739
0.649969
0.649127
0.648218
0.647251
0.646232
0.645168
0.644066
0.642933
0.641774
0.640597
0.639407
0.638208
0.637006
0.635806
0.634612
0.633426
0.632254
0.631098
0.629961
0.628845
0.627753
0.626687
0.625648
0.624639
0.62366
0.622712
0.621797
0.620916
0.620068
0.619256
0.618478
0.617737
0.617031
0.616361
0.615729
0.615132
0.614573
0.61405
0.613565
0.613116
0.612705
0.61233
0.611992
0.611691
0.611427
0.6112
0.611009
0.610855
0.610737
0.610655
0.610608
0.610597
0.610621
0.61068
0.610773
0.610901
0.611061
0.611254
0.61148
0.611737
0.612026
0.612344
0.612692
0.613069
0.613474
0.613907
0.614365
0.614849
0.615358
0.61589
0.616445
0.617022
0.61762
0.618238
0.618875
0.61953
0.620202
0.62089
0.621593
0.62231
0.62304
0.623782
0.624535
0.625298
0.62607
0.62685
0.627637
0.62843
0.629227
0.630029
0.630833
0.631639
0.632446
0.633252
0.634056
0.634858
0.635656
0.63645
0.637237
0.638018
0.63879
0.639553
0.640306
0.641047
0.641776
0.642491
0.643191
0.643874
0.644541
0.645188
0.645816
0.646422
0.647006
0.647566
0.648101
0.64861
0.649091
0.649542
0.649963
0.650353
0.650709
0.651031
0.651317
0.651565
0.651776
0.651946
0.652076
0.652163
0.652207
0.652205
0.652158
0.652063
0.651918
0.651723
0.651476
0.651175
0.65082
0.650409
0.64994
0.649412
0.648825
0.648176
0.647465
0.64669
0.645851
0.644946
0.643974
0.642935
0.641828
0.640651
0.639404
0.638087
0.636698
0.635237
0.633704
0.632099
0.630421
0.62867
0.626846
0.624949
0.622979
0.620936
0.618819
0.616629
0.614364
0.612023
0.609605
0.607109
0.60453
0.601865
0.599116
0.596256
0.593382
0.59018
0.678255
0.677848
0.677356
0.676774
0.676092
0.675316
0.674453
0.673512
0.672502
0.671432
0.670308
0.66914
0.667935
0.666699
0.665441
0.664166
0.66288
0.661588
0.660296
0.659007
0.657726
0.656457
0.655202
0.653965
0.652748
0.651554
0.650384
0.64924
0.648124
0.647037
0.645981
0.644955
0.643961
0.643
0.642071
0.641176
0.640315
0.639488
0.638696
0.637938
0.637214
0.636526
0.635872
0.635253
0.63467
0.634121
0.633607
0.633128
0.632683
0.632274
0.631899
0.631559
0.631254
0.630983
0.630746
0.630544
0.630376
0.630241
0.63014
0.630073
0.630038
0.630037
0.630067
0.63013
0.630224
0.63035
0.630506
0.630691
0.630907
0.631151
0.631423
0.631723
0.632049