/*--------------------------------*- C++ -*----------------------------------*\
  =========                 |
  \\      /  F ield         | OpenFOAM: The Open Source CFD Toolbox
   \\    /   O peration     | Website:  https://openfoam.org
    \\  /    A nd           | Version:  7
     \\/     M anipulation  |
\*---------------------------------------------------------------------------*/
FoamFile
{
    version     2.0;
    format      ascii;
    class       surfaceScalarField;
    location    "1.5";
    object      alphaPhi0.water;
}
// * * * * * * * * * * * * * * * * * * * * * * * * * * * * * * * * * * * * * //

dimensions      [0 3 -1 0 0 0 0];

internalField   nonuniform List<scalar> 
11840
(
0
0
0
0
0
0
0
0
0
0
0
0
0
0
0
0
0
0
0
0
0
0
0
0
0
0
0
0
0
0
0
0
0
0
0
0
0
0
0
0
0
0
0
0
0
0
0
0
0
0
0
0
0
0
0
0
0
0
0
0
0
0
0
0
0
0
0
0
0
0
0
0
0
0
0
0
0
0
0
0
0
0
0
0
0
0
0
0
0
0
0
0
0
0
0
0
0
0
0
0
0
0
0
0
0
0
0
0
0
0
0
0
0
0
0
0
0
0
0
0
0
0
0
0
0
0
0
0
0
0
0
0
0
0
0
0
0
0
0
0
0
0
0
0
0
0
0
0
0
0
0
0
0
0
0
0
0
0
0
0
0
0
0
0
0
0
0
0
0
0
0
0
0
0
0
0
0
0
0
0
0
0
0
0
0
0
0
0
0
0
0
0
0
0
0
0
0
0
0
0
0
0
0
0
0
0
0
0
0
0
0
0
0
0
0
0
0
0
0
0
0
0
0
0
0
0
0
0
0
0
0
0
0
0
0
0
0
1.1221847319956e-249
-5.1752135707621e-200
0
1.1221490598376e-249
0
0
0
0
0
0
0
0
0
0
0
0
0
0
0
0
0
0
0
0
0
0
0
0
0
0
0
0
0
0
0
0
0
0
0
0
0
0
0
0
0
0
0
0
0
0
0
0
0
0
0
0
0
0
0
0
0
0
0
0
0
0
0
0
0
0
0
0
0
0
0
0
0
0
0
0
0
0
0
0
0
0
0
0
0
0
0
0
0
0
0
0
0
0
0
0
0
0
0
0
0
0
0
0
0
0
0
0
0
0
0
0
0
0
0
0
0
0
0
0
0
0
0
0
0
0
0
0
0
0
0
0
0
0
0
0
0
0
0
0
0
0
0
0
0
0
0
0
0
0
0
0
0
0
0
0
0
0
0
0
0
0
0
0
0
0
0
0
0
0
0
0
0
0
0
0
0
0
0
0
0
0
0
0
0
0
0
0
0
0
0
0
0
0
0
9.8490106397206e-134
4.9245053198603e-134
1.790729207222e-134
8.8192669323099e-135
3.665050049628e-136
1.7540787067257e-134
3.6583903129069e-136
0
8.6409518518373e-137
0
2.1469361083591e-138
0
2.1429332613442e-138
0
6.8735252864587e-139
0
1.3240481314287e-140
6.7411204733159e-139
1.3216422128623e-140
0
3.1216589127759e-141
0
1.7303542702405e-142
0
1.2854060293212e-142
0
4.0969728870838e-144
1.2444363004504e-142
2.6260696112546e-144
0
6.2029241695506e-145
0
3.4381243646629e-146
0
2.5540352396621e-146
0
8.5729860032534e-148
2.4683053796296e-146
2.7277680748733e-148
0
1.7358583837968e-149
0
1.7327127215146e-149
0
9.2371742016488e-151
0
9.2267923790592e-151
0
1.7994730326155e-152
8.9210881588307e-151
7.3407404053903e-153
0
3.4348122247735e-153
0
1.9962520426422e-154
0
9.643374824416e-155
0
2.8507954305466e-155
0
5.8684744322025e-156
0
1.1035559463872e-156
0
2.000815957333e-157
0
3.6419619963326e-158
0
6.6231802880787e-159
0
1.2041995880791e-159
0
2.1894527506082e-160
9.8525431301826e-160
3.980825383349e-161
0
7.2378634114566e-162
3.2570390422033e-161
1.3159752378302e-162
0
2.3926822405257e-163
1.0767070137777e-162
4.3503313542908e-164
0
7.9096933707891e-165
0
1.4381260674027e-165
6.4715673033864e-165
2.6147746680308e-166
0
4.7541357600537e-167
2.1393610920254e-166
8.6438832000976e-168
3.8897474400439e-167
1.5716151272905e-168
0
2.8574820496192e-169
1.2858669223286e-168
5.1954219083985e-170
0
9.4462216516338e-171
4.2507997432351e-170
1.7174948457516e-171
0
3.1227179013666e-172
0
5.6776689115757e-173
0
1.0323034384683e-173
0
1.8769153426697e-174
8.4461190420134e-174
3.4125733503086e-175
1.5356580076388e-174
6.2046788187429e-176
0
1.1281234215896e-176
0
2.0511334937993e-177
9.230100722097e-177
3.7293336250898e-178
0
6.7806065910724e-179
3.0512729659825e-178
1.2328375620132e-179
0
2.241522840024e-180
1.0086852780108e-179
4.0754960727709e-181
0
7.4099928595835e-182
0
1.3472714290152e-182
0
2.4495844163913e-183
0
4.4537898479842e-184
2.0042054315929e-183
8.0977997236077e-185
0
1.4723272224742e-185
0
2.6769585863167e-186
1.2046313638425e-185
4.8671974296668e-187
0
8.8494498721214e-188
3.9822524424546e-187
1.6089908858403e-188
0
2.9254379742551e-189
0
5.3189781350093e-190
0
9.6708693363807e-191
0
1.7583398793419e-191
7.9125294570387e-191
3.1969815988036e-192
0
0
0
0
0
0
0
0
0
0
0
0
0
0
0
0
0
0
0
0
0
0
0
0
0
0
0
0
0
0
0
0
0
0
0
0
-3.3642972259089e-76
-1.6821486129544e-76
-9.1751893422053e-76
-4.5875946711026e-76
-1.6682161827009e-76
-8.3410809135046e-77
4.0812908506993e-62
3.6731617656272e-61
2.7156435756539e-59
2.1506740800415e-59
7.9946673325623e-58
4.6199665423759e-58
4.6299679813679e-57
3.1256463298644e-57
2.2843092580565e-56
1.5797497666585e-56
1.0450173213576e-55
7.2753869051452e-56
4.6131094402095e-55
3.2715745468947e-55
1.7027886244663e-54
1.1952846934481e-54
9.8010591077644e-54
6.3883038902699e-54
2.1427822994256e-51
1.3368446380851e-51
4.5257125977997e-50
2.6408324776323e-50
1.6268075702207e-49
1.1346597322939e-49
8.4211202158249e-49
5.6960803660896e-49
5.1995909979576e-48
3.2072561981022e-48
1.6476857545781e-47
1.1873671595318e-47
5.2001437430535e-47
3.5692834600261e-47
1.0237961465866e-46
8.8605710549729e-47
1.3271212732669e-46
1.235375500813e-46
1.4906219016205e-46
1.474600411215e-46
1.4927576581349e-46
1.5466825702421e-46
1.8197783685282e-46
1.4896498880996e-46
2.3138843875811e-46
1.717045505247e-46
3.1962147403156e-46
1.8936902257797e-46
4.5967833901353e-46
2.2935277331701e-46
4.436698595708e-46
3.5646477077994e-46
4.4975335032421e-46
2.2658257051385e-46
3.113963232374e-46
1.8408552406386e-46
1.1858067518309e-46
9.808646867695e-47
2.1589450165227e-47
4.8505587691158e-47
3.7355999414495e-48
9.2031253174467e-48
6.7593795847406e-49
1.7856363501522e-48
1.4426103261049e-49
3.6443445142834e-49
2.4820764457353e-50
1.1498148448704e-49
5.8999731553933e-51
1.5047451219518e-50
1.1314240263553e-51
4.3727331390212e-51
1.7274627415959e-52
8.904587631214e-52
4.2878005217246e-53
1.0599690002986e-52
6.4467673847225e-54
3.3814891191338e-53
1.6126780503031e-54
3.9697782586185e-54
2.4414356097626e-55
1.2716918584877e-54
4.5549593204192e-56
1.8140216216449e-55
1.138675398756e-56
2.8126392633523e-56
1.6915406956877e-57
9.0241670642677e-57
4.4029610981104e-58
1.0411412896714e-57
7.9936544076781e-59
3.3554735168504e-58
1.1928925352568e-59
6.3576483755133e-59
2.9878767220459e-60
7.3781206802724e-60
4.4274724249464e-61
2.3709725630124e-60
1.1538035700213e-61
2.7271302254426e-61
2.0944369306143e-62
8.7972085132484e-62
3.1641641038477e-63
1.6633273428265e-62
6.6104965756513e-64
1.9941467826975e-63
1.180122583268e-64
4.9379124892849e-64
3.07573547022e-65
7.2693296132549e-65
5.5806242912125e-66
2.3455670664156e-65
8.2863690167509e-67
4.4440472373579e-66
2.1643809178239e-67
5.1011235502887e-67
3.9836703005789e-68
1.644634202287e-67
7.6027949093775e-69
3.0791719053318e-68
1.3898465678125e-69
5.8184204792444e-69
2.0858059583544e-70
1.104407407228e-69
3.9624093756677e-71
1.5461724881517e-70
8.6209342419011e-72
2.482704382246e-71
1.7432472133674e-72
5.233500591206e-72
3.1631178533274e-73
1.2495596518274e-72
8.0968063491462e-74
1.9309595048802e-73
1.4716096856444e-74
6.1653914746424e-74
2.2112815703098e-75
1.1697054973231e-74
4.7646513578999e-76
1.3883708312794e-75
1.1291375899405e-76
2.8427944033595e-76
1.6904719545556e-77
8.9081568582823e-77
3.182186945559e-78
1.2549223890333e-77
6.8979915609521e-79
1.997281603431e-78
1.4397453178565e-79
4.17415828423e-79
2.9305640352725e-80
8.6466792644627e-80
6.8187680154817e-81
1.7360956592999e-80
1.0164399594007e-81
5.382319174375e-81
2.1617421569965e-82
6.3921099342735e-82
5.1208549733457e-83
1.2894731671488e-82
3.7193883466081e-83
0
0
0
0
0
0
0
0
0
0
0
0
0
0
0
0
0
0
9.0996321149767e-45
4.7206242016942e-45
9.027102567908e-44
6.743048210331e-44
1.4613674676832e-43
1.089649685859e-43
1.0957714757103e-42
1.0439113039834e-42
2.0089252325069e-43
8.9487863847826e-43
3.7307808496036e-44
1.6358471475465e-43
6.7900104194801e-45
3.0517798076556e-44
1.2603979873035e-45
5.5296124321767e-45
5.3110272037416e-42
0
9.6575779442157e-43
4.3452694093204e-42
1.7559567783866e-43
7.9016211658291e-43
3.1926486722373e-44
1.4366919111629e-43
5.8048161647128e-45
2.612167055766e-44
6.6948404768152e-44
0
1.2172437255742e-44
5.477596751242e-44
2.2131704101125e-45
9.9592668456718e-45
4.0239462008701e-46
1.8107757902174e-45
7.3162658468495e-47
3.2923196247162e-46
1.3302302558551e-47
5.9860359066232e-47
2.4186058259759e-48
1.0883714243845e-47
4.4079277250798e-49
1.9815443492635e-48
1.3880554788977e-45
0
2.5250350405608e-46
1.135921002782e-45
4.6383305524461e-47
2.0763462699453e-46
4.4608557061433e-45
0
8.2455277835143e-46
3.6735472073903e-45
4.7787674723883e-43
0
4.7827141736026e-43
0
1.5460305239031e-44
4.6309759339651e-43
2.1336803047802e-44
0
9.5833306405553e-46
2.0697851025528e-44
9.0770649333585e-46
0
5.3834709635265e-46
8.5312395157218e-46
3.9847656076292e-46
5.9780108386286e-46
4.0462636329328e-46
4.3860264135083e-46
1.1419374439847e-45
0
4.1664786855081e-46
0
2.4398495252875e-46
1.8711590622225e-46
1.8092511867292e-46
9.1398587889359e-47
3.3031083446171e-47
0
2.6923331977085e-47
0
6.9551607491872e-48
1.8381252685827e-47
3.9358470267602e-48
7.7075046288104e-48
7.2231180613883e-49
3.2574422424988e-48
9.2621033455982e-50
0
9.4291914925492e-50
0
1.2740472583075e-50
8.1935431971122e-50
7.0607261742876e-51
0
9.3895834193598e-52
6.1365578727175e-51
5.4770981586578e-52
0
1.2568038643577e-53
5.3570412731861e-52
1.2616149328995e-53
0
7.1175334422667e-54
0
9.5255697023645e-55
6.1690032334188e-54
5.3989030666031e-55
0
9.8299912077334e-56
4.417406950794e-55
1.3182999838377e-56
8.5145666412627e-56
7.5288282648008e-57
0
1.0022027741505e-57
6.5276908831086e-57
5.9957327206876e-58
0
1.8673338584803e-59
5.8093950074342e-58
1.8678214317189e-59
0
2.3003832995749e-60
0
2.299629429421e-60
0
1.4185367664466e-60
0
2.4275256404762e-61
1.1757947581048e-60
4.4138647103451e-62
1.9861593544958e-61
7.5025635357349e-63
0
7.5002745454405e-63
0
2.4809469713985e-64
7.2521940243388e-63
2.4801931888227e-64
0
1.000414825073e-65
2.3801567202503e-64
9.224199020464e-66
0
2.6069012098039e-66
0
1.0980957665987e-66
0
1.0496410616878e-66
0
1.6936109218732e-67
0
1.69308008862e-67
0
3.2280711443373e-69
1.6607994302762e-67
2.3243755421813e-69
0
1.7280116880063e-69
0
7.0199774830458e-71
1.6578119527068e-69
6.4864598421527e-71
0
1.7837738763473e-71
0
6.9897715996884e-72
0
6.3014460666359e-72
0
9.6906905782415e-73
0
9.6874536092743e-73
0
1.1507388600426e-73
0
8.9995112526504e-74
0
0
0
0
0
0
0
0
0
0
0
0
0
0
0
0
3.122014109179e-35
1.5639962865335e-35
2.0261548862904e-33
1.0277095839246e-33
6.3728018579454e-32
3.2801183692913e-32
1.2881738662099e-30
6.7393173672034e-31
1.8864947903602e-29
1.0052568362733e-29
2.0904104368089e-28
1.1387062604261e-28
1.7871556598689e-27
9.951197253357e-28
1.2991574850759e-26
7.310927931583e-27
9.4145507815532e-26
5.2811085922947e-26
7.1140308382087e-25
3.9762564579983e-25
5.1202326875342e-24
2.8850110506276e-24
3.2612168425367e-23
1.8718477834062e-23
1.7805092207611e-22
1.0476432726462e-22
8.2208708314958e-22
4.9850055883247e-22
3.2033026008844e-21
2.0100577400229e-21
1.0576317207539e-20
6.8877297326165e-21
2.9804382175853e-20
2.018274856649e-20
7.2455545793381e-20
5.1043764035265e-20
1.5426647254765e-19
1.1289251835402e-19
2.9322180426569e-19
2.2214725110159e-19
5.0754833273018e-19
3.9651522421249e-19
8.1155602977242e-19
6.5259469345121e-19
1.1975850444722e-18
9.9630882149731e-19
1.5793492960264e-18
1.3880208192853e-18
1.7671546474348e-18
1.6815006903311e-18
1.7828660481925e-18
1.7571979634203e-18
1.7448644448099e-18
1.7365235487436e-18
1.5961752138916e-18
1.6407318431409e-18
1.2980035040252e-18
1.4162743636706e-18
8.9657961085433e-19
1.069180596821e-18
4.9936455320026e-19
6.7392425016743e-19
2.1473429936588e-19
3.3944482915217e-19
7.1226572450619e-20
1.3354086828803e-19
1.9769575145372e-20
4.2360702316619e-20
5.2319627146403e-21
1.1891360716692e-20
1.440593632357e-21
3.2650519231825e-21
4.2117992971537e-22
9.2641880744485e-22
1.2947742934071e-22
2.7541456978044e-22
4.1245598767605e-23
8.5378799635004e-23
1.3428537477453e-23
2.730086181999e-23
4.4081415710413e-24
8.8894923227524e-24
1.4400454670514e-24
2.908328862283e-24
4.6299106413559e-25
9.4425872344358e-25
1.4540120514905e-25
3.012649174661e-25
4.4462178539367e-26
9.3882151166284e-26
1.3250816014849e-26
2.8520576984915e-26
3.8625099269615e-27
8.4591489249761e-27
1.1058932577742e-27
2.4578639837347e-27
3.1207696442258e-28
7.0213757997629e-28
8.6983251647401e-29
1.977609850545e-28
2.3972975351613e-29
5.5016203854818e-29
6.5375257873024e-30
1.5133491555533e-29
1.7651139858427e-30
4.1192204142173e-30
4.7215202258853e-31
1.1102328458864e-30
1.2520599401073e-31
2.9650173726582e-31
3.2935434216233e-32
7.8511083397925e-32
8.5985204587199e-33
2.0624067702004e-32
2.2289647514953e-33
5.3774459433741e-33
5.7395350010408e-34
1.3922873943714e-33
1.4685971067293e-34
3.5810080426497e-34
3.7353028208587e-35
9.1529597374862e-35
9.4466664652116e-36
2.3256274473957e-35
2.3761957113142e-36
5.8758580748871e-36
5.9463153078141e-37
1.4766387890891e-36
1.4807378076757e-37
3.6919736970164e-37
3.6700119821881e-38
9.185973416017e-38
9.0553134823101e-39
2.2749260389817e-38
2.2246798927264e-39
5.608817354953e-39
5.4429619540512e-40
1.3769478524202e-39
1.3264087875813e-40
3.3665152481892e-40
3.2200289332958e-41
8.1984223022701e-41
7.788327682592e-42
1.9889861388815e-41
1.8771053652096e-42
4.8077960361125e-42
4.5086603170772e-43
1.1580582081916e-42
1.0793742260169e-43
2.779960623223e-43
2.5757903936162e-44
6.6515287337123e-44
6.1278556198675e-45
1.5864509307862e-44
1.4534802768613e-45
3.7722395835345e-45
3.4375826913968e-46
8.9429744739035e-46
8.1073552221677e-47
2.11404967486e-46
1.906882588638e-47
4.9835305966403e-47
4.4732403851603e-48
1.1716128702047e-47
1.0466637267315e-48
2.7472027287889e-48
2.4429258829665e-49
6.4252447496545e-49
5.6880266929725e-50
1.4990367599159e-49
1.3212648994307e-50
3.4888981681563e-50
3.0621169443755e-51
8.1011435942086e-51
7.0809359929387e-52
1.8767709723158e-51
1.6335977979283e-52
4.3384315148678e-52
3.7671000587209e-53
1.0001992022245e-52
8.51747532415e-54
2.3136288030299e-53
2.2723726894579e-54
5.0355670947512e-54
1.7528476882556e-54
0
0
0
0
0
0
0
0
0
0
0
0
2.869916479196e-35
1.4300890628486e-35
2.7205426575827e-33
1.3552348794481e-33
1.1635358369845e-31
5.8293628341737e-32
3.1049835250647e-30
1.5702909875497e-30
5.8680532009271e-29
3.0041727256172e-29
8.4392684352316e-28
4.3855175409855e-28
9.5211507558153e-27
5.0404824021664e-27
8.5418990031187e-26
4.6223091037224e-26
6.2660888784534e-25
3.4697757923266e-25
3.8895740311597e-24
2.1851978151047e-24
2.3045567797938e-23
1.2850255076861e-23
1.5312116582378e-22
8.3888594013462e-23
1.0203866237821e-21
5.6060958300585e-22
5.9270568025741e-21
3.3570558202892e-21
3.0086409742608e-20
1.7575604506071e-20
1.3035516986393e-19
7.886259927441e-20
4.6494042199854e-19
2.9424707100168e-19
1.346213532139e-18
8.976276958467e-19
3.1848977585774e-18
2.2415911424318e-18
6.31905951462e-18
4.6681990815082e-18
1.099437046283e-17
8.4127098082719e-18
1.7627506766792e-17
1.3764804982437e-17
2.6940599897223e-17
2.1296360851639e-17
3.9358067356774e-17
3.1666309095145e-17
5.2894491376103e-17
4.4418554994347e-17
6.0960554371823e-17
5.5394175100276e-17
6.1907186742343e-17
5.9156122550958e-17
6.1094009686458e-17
5.8754269770806e-17
5.653869715134e-17
5.605339394544e-17
4.6704581779242e-17
4.9066430571664e-17
3.2935500648688e-17
3.7719157201472e-17
1.8861708393177e-17
2.4338379153248e-17
8.4365559982464e-18
1.2655862540706e-17
2.9523901338572e-18
5.2027627540423e-18
8.7246315493899e-19
1.7450357056872e-18
2.4567109795428e-19
5.2071635388528e-19
7.1726842483418e-20
1.5188985521819e-19
2.223013078389e-20
4.5752635528153e-20
7.2568993575632e-21
1.4456454986252e-20
2.4563806589054e-21
4.7686610076764e-21
8.4821219207647e-22
1.6214221827871e-21
2.9425073871585e-22
5.5984628893454e-22
1.0118097283258e-22
1.9348792748991e-22
3.4116857599864e-23
6.6107583255329e-23
1.1195311616611e-23
2.2113026393147e-23
3.5614406008286e-24
7.1955334372423e-24
1.098474829813e-24
2.2716780298507e-24
3.2962125433541e-25
6.9653106442005e-25
9.6712197829995e-26
2.0817007910257e-25
2.7876538849625e-26
6.0919344012012e-26
7.9200898187761e-27
1.7526077833936e-26
2.2221412916943e-27
4.9706348098253e-27
6.163092123284e-28
1.3920823686703e-27
1.6908783079667e-28
3.8538462523574e-28
4.5920579692619e-29
1.0554672724761e-28
1.235353041153e-29
2.8617819517188e-29
3.2942730180053e-30
7.6873871799957e-30
8.7131874627045e-31
2.0471848038489e-30
2.2870310498686e-31
5.4078521118796e-31
5.9599680114666e-32
1.4177635530538e-31
1.5426605588149e-32
3.6905393934401e-32
3.9674588467472e-33
9.5424162424728e-33
1.0141844059381e-33
2.4517050399248e-33
2.577614560626e-34
6.261293533245e-34
6.5153573732719e-35
1.5899296363787e-34
1.638287993082e-35
4.0154161318152e-35
4.0989966920025e-36
1.0088647503553e-35
1.0206946733316e-36
2.5222448166394e-36
2.5300765960031e-37
6.2760706540392e-37
6.2441491603241e-38
1.5546125066856e-37
1.5345857982891e-38
3.8341708272371e-38
3.7562868991726e-39
9.4169732463745e-39
9.1588871392499e-40
2.3036278974614e-39
2.2248743070082e-40
5.6135859736921e-40
5.3852473781906e-41
1.3628788375807e-40
1.2989675069966e-41
3.2970147814402e-41
3.1227353671978e-42
7.9485112452644e-42
7.4828180120131e-43
1.9098674708512e-42
1.7874520461737e-43
4.5742676266858e-43
4.2568311163737e-44
1.0921605202501e-43
1.0107936582256e-44
2.5998070765295e-44
2.3933255182749e-45
6.1705858436298e-45
5.6512083664269e-46
1.4604310659193e-45
1.3308110932322e-46
3.4470048993099e-46
3.1257956234592e-47
8.114165621366e-47
7.3232816557077e-48
1.9051107059108e-47
1.7115215711591e-48
4.4617228823581e-48
3.9904220795943e-49
1.0423687519781e-48
9.2821817068404e-50
2.42942310049e-49
2.1539037303378e-50
5.6493567581215e-50
4.9954064901176e-51
1.3100460639161e-50
1.1357921102022e-51
3.0478265540809e-51
3.0487964963447e-52
6.6698528654512e-52
2.3386624332944e-52
0
0
0
0
0
0
0
0
0
0
1.2641040609082e-35
6.2502914608384e-36
1.6580839400319e-33
8.1522927248183e-34
9.1244580832417e-32
4.4854702252883e-32
3.0054770933882e-30
1.4827303375766e-30
6.8984857347092e-29
3.4245617965543e-29
1.1959486739425e-27
5.9882465052881e-28
1.6428780231028e-26
8.3179253973533e-27
1.8332114240557e-25
9.4158016113118e-26
1.6831109627266e-24
8.8025467995624e-25
1.2852220725554e-23
6.8772447602431e-24
8.0863291480293e-23
4.4340430506688e-23
4.4075945804587e-22
2.4580160060891e-22
2.2560188845287e-21
1.2423521603217e-21
1.3482332344901e-20
7.0853983144619e-21
1.1388876111344e-19
5.8399543545091e-20
7.6226556270851e-19
4.1075222745906e-19
3.7053378123213e-18
2.180190761443e-18
1.5411367082207e-17
9.5074250875702e-18
5.0016735825667e-17
3.3058331111696e-17
1.144505068055e-16
8.3622974691363e-17
1.8611867231491e-16
1.5059220380829e-16
2.4436451166812e-16
2.0929826593369e-16
3.0190908661308e-16
2.6019746079225e-16
3.8676201258277e-16
3.2359437039299e-16
5.2852129561013e-16
4.2621453982033e-16
7.3570469559384e-16
5.8730325715523e-16
9.2813971346643e-16
7.7988158626642e-16
9.8248176716333e-16
8.9583353861074e-16
9.8368208322531e-16
9.0820236463101e-16
9.2553507517681e-16
8.785451041729e-16
7.8540375721913e-16
7.8713120239698e-16
5.6562589957913e-16
6.1858490500633e-16
3.3043788944181e-16
4.0716597300826e-16
1.514716542319e-16
2.162099649181e-16
5.5176988724119e-17
9.1646313511089e-17
1.7316655066983e-17
3.2253135019886e-17
5.2368777503215e-18
1.0260737505489e-17
1.6431973918698e-18
3.2138414591413e-18
5.4590608230536e-19
1.0404365283237e-18
1.905065461878e-19
3.5281033624399e-19
6.869341066354e-20
1.245375367914e-19
2.5156739184007e-20
4.5120022189138e-20
9.2170816489226e-21
1.6522455245777e-20
3.3381796744921e-21
6.0332010122407e-21
1.1836934168786e-21
2.1726395159246e-21
4.0775224514681e-22
7.6461497091183e-22
1.3570344416638e-22
2.6109267792928e-22
4.3551325820068e-23
8.6130526588029e-23
1.3509878783697e-23
2.7435471011502e-23
4.0731228441061e-24
8.4655759916429e-24
1.2010492778793e-24
2.5440528932463e-24
3.4812852093747e-25
7.4869136002449e-25
9.9494526047231e-26
2.1667351799093e-25
2.8081124852956e-26
6.1825565757674e-26
7.8333727994999e-27
1.7419415755818e-26
2.1612217877613e-27
4.8508187951492e-27
5.9017761307502e-28
1.3361606679879e-27
1.5963346065231e-28
3.6433367048342e-28
4.2798120797545e-29
9.8413892522341e-29
1.1380155170618e-29
2.6352334567176e-29
3.0027623382096e-30
6.9990749422567e-30
7.8657789474824e-31
1.844770445669e-30
2.046391344628e-31
4.8274762646885e-31
5.2896089750003e-32
1.2547297647745e-31
1.3589196794009e-32
3.2403514532749e-32
3.4708343613334e-33
8.3174686230263e-33
8.8159056667984e-34
2.1226575773398e-33
2.2274392479429e-34
5.3874069238297e-34
5.5995703643374e-35
1.3601980584686e-34
1.4009078061685e-35
3.4170376509547e-35
3.4886664905262e-36
8.5431406781587e-36
8.6494222656114e-37
2.1261481384064e-36
2.135352022168e-37
5.2681654250784e-37
5.2502311334017e-38
1.2998443189433e-37
1.2858226705982e-38
3.1941873486662e-38
3.1371865884776e-39
7.8186719022628e-39
7.6263242303236e-40
1.9066519262121e-39
1.8474015950143e-40
4.632699333986e-40
4.4599577354248e-41
1.1216982496863e-40
1.0731806171978e-41
2.7067550588592e-41
2.5741513202013e-42
6.5103101821377e-42
6.1554314865054e-43
1.5609188655776e-42
1.4675326433712e-43
3.7310281339593e-43
3.4886819696798e-44
8.8917568372403e-44
8.2702155480103e-45
2.1129862369113e-44
1.9551935133209e-45
5.0071775511432e-45
4.6101391063239e-46
1.1833464240217e-45
1.0842315029258e-46
2.7892473029801e-46
2.5435707099501e-47
6.5576857008823e-47
5.9527273887283e-48
1.5379101395469e-47
1.3896020141401e-48
3.598162705983e-48
3.2418471803032e-49
8.3942017835551e-49
7.4133435709552e-50
1.964522581044e-49
2.0025902404857e-50
4.3232690983839e-50
1.5273748115051e-50
0
0
0
0
0
0
0
0
0
0
4.250359397967e-34
2.0419731872768e-34
3.8960173067664e-32
1.8726917398815e-32
1.7073635621749e-30
8.2280722754594e-31
4.8005835112188e-29
2.3235457915671e-29
9.8013744656564e-28
4.7710483056047e-28
1.5570803786584e-26
7.631616706415e-27
2.0100849858616e-25
9.9338225217661e-26
2.1629644929024e-24
1.0801614406481e-24
1.9675462631917e-23
9.9595369979106e-24
1.5245266258258e-22
7.8580923431388e-23
9.9508373606459e-22
5.2478315270335e-22
5.5436235488257e-21
3.0073369392019e-21
2.5941424394641e-20
1.4298695887765e-20
1.2244409953562e-19
6.5504109344046e-20
7.5463150647224e-19
3.7274171230312e-19
6.3036638481877e-18
2.881796633251e-18
1.4189304241771e-16
6.3514230529538e-17
1.2541080249844e-15
6.3069616269587e-16
4.9956844025198e-15
3.0859942573793e-15
1.0787938469945e-14
8.6631922931823e-15
1.1888910744244e-14
1.1816998225366e-14
1.0975057494618e-14
1.1482592821953e-14
8.100926797726e-15
9.4112712314475e-15
6.0115546037029e-15
6.4229823554988e-15
5.9017715699189e-15
5.6051474044085e-15
6.6863288735501e-15
5.8118126916208e-15
8.2356917349392e-15
6.7490961559271e-15
9.4014481402425e-15
7.989605621926e-15
9.5190628418375e-15
8.4196048649779e-15
9.1985930764171e-15
8.2762535343349e-15
7.9931977793954e-15
7.5802407916608e-15
5.8401939412494e-15
6.0625531968973e-15
3.4370646942559e-15
4.03092226768e-15
1.598592759622e-15
2.1633013341017e-15
6.0583141964533e-16
9.4128462856121e-16
2.0359645527297e-16
3.4897278693278e-16
6.6925366001391e-17
1.1955863372263e-16
2.2842340666086e-17
4.0720039604893e-17
8.2170442914071e-18
1.4341559820966e-17
3.0868718414142e-18
5.2701516526615e-18
1.1904320563739e-18
2.0035790485929e-18
4.6334629137581e-19
7.7639964376407e-19
1.7961012976062e-19
3.0226243128219e-19
6.8673714011397e-20
1.1688441579213e-19
2.5694092651728e-20
4.4496391034707e-20
9.3335140744269e-21
1.6540788626556e-20
3.2678874582304e-21
5.9570690389489e-21
1.0979072693736e-21
2.0654502061605e-21
3.540817805324e-22
6.8759466480285e-22
1.1018145961815e-22
2.2020777525548e-22
3.3332352748874e-23
6.8227124863369e-23
9.8728084453343e-24
2.0592417300735e-23
2.8769088313726e-24
6.0907322402087e-24
8.2686273531254e-25
1.7724822443287e-24
2.3468445769593e-25
5.0866383099537e-25
6.582589467245e-26
1.4413449240111e-25
1.8259202273549e-26
4.0362701036761e-26
5.0127718432966e-27
1.1179478687308e-26
1.3630736651551e-27
3.0650518320052e-27
3.6737202077297e-28
8.3243883599995e-28
9.8196634557243e-29
2.2410549176406e-28
2.6044391561727e-29
5.9839601670099e-29
6.8573501988904e-30
1.5855512698297e-29
1.7930846685761e-30
4.1708299372571e-30
4.6581046096971e-31
1.0896603331986e-30
1.2026213386346e-31
2.8284324064433e-31
3.0866985279802e-32
7.2967876264448e-32
7.8782218398654e-33
1.8714639060681e-32
2.0000640519628e-33
4.7732758165833e-33
5.0517924032679e-34
1.2110124150666e-33
1.2697824199852e-34
3.0568957777887e-34
3.1767618212472e-35
7.6790569998278e-35
7.912150305404e-36
1.9200772860609e-35
1.9621682656464e-36
4.7796403047379e-36
4.8459841210053e-37
1.1847151233573e-36
1.1920631483483e-37
2.9244643181661e-37
2.9211331388302e-38
7.1905029279101e-38
7.1317755368808e-39
1.7612274418577e-38
1.7349784345886e-39
4.2980724358716e-39
4.2062320832054e-40
1.0451762045033e-39
1.0163534707656e-40
2.5328821238471e-40
2.4479110002787e-41
6.1178576954069e-41
5.8774665096807e-42
1.4729541366525e-41
1.4069233446151e-42
3.5353187264478e-42
3.3579661803718e-43
8.4597813706032e-43
7.9918196457838e-44
2.0184616362199e-43
1.8967692250295e-44
4.8023105745691e-44
4.4896976594379e-45
1.1394206608362e-44
1.0599501272743e-45
2.6962258181716e-45
2.4960760922674e-46
6.3635133269412e-46
5.8625669680768e-47
1.4981682771373e-46
1.3759528713786e-47
3.5166401205947e-47
3.1649705776207e-48
8.2801349499068e-48
8.6052387714013e-49
1.8325770679399e-48
6.5249625054092e-49
0
0
0
0
0
0
0
0
2.0800524079822e-47
5.9137754301776e-48
6.7922438847551e-33
3.1604877153399e-33
5.3755700022277e-31
2.5127524996086e-31
2.0921964325319e-29
9.8324283772071e-30
5.3325581111096e-28
2.5214905855017e-28
1.0012745921289e-26
4.7665064806341e-27
1.4785364164283e-25
7.0885180740302e-26
1.7925047105285e-24
8.6576810983819e-25
1.8344831652467e-23
8.9322404490265e-24
1.6157020855606e-22
7.9433879899571e-23
1.2353528983107e-21
6.1521679865502e-22
8.172275001119e-21
4.1421339487663e-21
4.6821002178156e-20
2.4324501371326e-20
2.2486456337472e-19
1.2028215167988e-19
9.586071037843e-19
5.1964784803619e-19
4.1013362449814e-18
2.1106539753371e-18
2.5411876524119e-17
1.1387668569159e-17
4.4280709544123e-16
1.5922647362317e-16
4.9773839125074e-15
1.7017840129706e-15
6.0379861168598e-14
1.9349017485158e-14
4.2851192577541e-13
1.6021661967025e-13
4.911418950019e-13
4.5931355121341e-13
4.1408101800186e-13
4.7379973925284e-13
2.4506717614425e-13
3.8822105638356e-13
1.300854348306e-13
2.2196172567054e-13
7.5655959407231e-14
1.1798725135519e-13
5.6885275786511e-14
6.7955993835317e-14
5.5266183417126e-14
5.3538041681269e-14
5.8225616889422e-14
5.1786994805338e-14
5.9811695561764e-14
5.2149057960873e-14
5.9266433255837e-14
5.1045165756603e-14
5.2286870348611e-14
4.6950837109282e-14
3.8438323544903e-14
3.7611370808964e-14
2.2750540996373e-14
2.5009875191062e-14
1.0787269747993e-14
1.3545550081381e-14
4.2856477376528e-15
6.0857363607055e-15
1.5582635364256e-15
2.4042409471631e-15
5.6425843377958e-16
9.0063985250911e-16
2.1251111606781e-16
3.3919271944397e-16
8.3785816463606e-17
1.3198911839595e-16
3.4169424423e-17
5.3189335835317e-17
1.4167774577219e-17
2.1954413319231e-17
5.8829926867511e-18
9.1488732564445e-18
2.4214240245373e-18
3.80324425234e-18
9.8140024618399e-19
1.56423715822e-18
3.8929813977863e-19
6.3250020950379e-19
1.4997826768561e-19
2.4970696402629e-19
5.5620804773238e-20
9.5456213935394e-20
1.97135070762e-20
3.5043156487449e-20
6.6607759453423e-21
1.2288261296614e-20
2.1531454452608e-21
4.114699296306e-21
6.7130449825859e-22
1.32213359701e-21
2.037192331251e-22
4.1091100462423e-22
6.0609023972484e-23
1.2451397120872e-22
1.7753467946467e-23
3.7007129509434e-23
5.1302478814406e-24
1.0827184154093e-23
1.4638884611227e-24
3.1242037565142e-24
4.1275748774028e-25
8.9009424494306e-25
1.150882886798e-25
2.5060002402226e-25
3.1759289130312e-26
6.9781059019469e-26
8.680606668092e-27
1.9233470247341e-26
2.3516034186625e-27
5.2512673627348e-27
6.3177999432556e-28
1.4211522176995e-27
1.684130001287e-28
3.8144670943963e-28
4.4564529407671e-29
1.0159238616646e-28
1.1710735455994e-29
2.6860650965093e-29
3.0571816541489e-30
7.0530218056689e-30
7.9313544122331e-31
1.8399089884004e-30
2.0454864084443e-31
4.770070632434e-31
5.2455597291464e-32
1.2293996205633e-31
1.3379690159382e-32
3.1508126234105e-32
3.395185444773e-33
8.0320250098997e-33
8.5731540801407e-34
2.0370591256239e-33
2.1546013914742e-34
5.1410732413972e-34
5.3904578156408e-35
1.2914099316092e-34
1.3427475176874e-35
3.2293644104254e-35
3.3307767624326e-36
8.040618305485e-36
8.2289985756849e-37
1.9936692555713e-36
2.0251740331053e-37
4.9235152529155e-37
4.9653671804041e-38
1.2112088687218e-37
1.2130264507005e-38
2.9685449934204e-38
2.953058464726e-39
7.2494464145234e-39
7.164843462669e-40
1.7642301672895e-39
1.7326926245226e-40
4.2790215221516e-40
4.1769689484255e-41
1.0344736868311e-40
1.0038487077122e-41
2.4930133002099e-41
2.4053750770422e-42
5.9896578353076e-42
5.7470249103851e-43
1.4348009557052e-42
1.3692586162488e-43
3.4271369894001e-43
3.2534484406561e-44
8.1631493530442e-44
7.710074535697e-45
1.9391109223221e-44
1.8221523368798e-45
4.594333002225e-45
4.3028248385865e-46
1.0851736942886e-45
9.9563430943563e-47
2.5708787818322e-46
2.7249425438086e-47
5.7227249013614e-47
2.0538860899387e-47
0
0
0
0
0
0
0
0
5.3763997622174e-48
5.3737566793251e-49
6.8341993918319e-32
3.0722669723416e-32
5.0215377444391e-30
2.2742344767833e-30
1.8286222336591e-28
8.3451232182285e-29
4.3877776089349e-27
2.0183193253402e-27
7.790623735133e-26
3.6130332157997e-26
1.0902415549249e-24
5.0983566212673e-25
1.2538207089879e-23
5.9116778435327e-24
1.219654989071e-22
5.7967432431239e-23
1.0267988775518e-21
4.9188077801388e-22
7.5943820690341e-21
3.671007750162e-21
4.9561134372645e-20
2.4249431270625e-20
2.8490773510743e-19
1.4190358689586e-19
1.4155630851603e-18
7.2245347459176e-19
6.1506120438838e-18
3.2428945707239e-18
2.2766295318734e-17
1.2147729230116e-17
9.1059503956455e-17
4.4135828086354e-17
7.1151218322804e-16
2.5921701421728e-16
6.9189908633494e-15
2.0970083123429e-15
7.2714949443852e-14
2.005337318268e-14
5.4163067036247e-13
1.3388816547086e-13
6.0181277353226e-12
1.7351550088525e-12
1.2984763891367e-11
8.5824458917936e-12
1.3945165045408e-11
1.7265758455882e-11
7.2062705280644e-12
1.3724180075796e-11
2.4570725025717e-12