/*--------------------------------*- C++ -*----------------------------------*\
  =========                 |
  \\      /  F ield         | OpenFOAM: The Open Source CFD Toolbox
   \\    /   O peration     | Website:  https://openfoam.org
    \\  /    A nd           | Version:  7
     \\/     M anipulation  |
\*---------------------------------------------------------------------------*/
FoamFile
{
    version     2.0;
    format      ascii;
    class       volScalarField;
    location    "1.5";
    object      alpha.water;
}
// * * * * * * * * * * * * * * * * * * * * * * * * * * * * * * * * * * * * * //

dimensions      [0 0 0 0 0 0 0];

internalField   nonuniform List<scalar> 
6000
(
0
0
0
0
0
0
0
0
0
0
0
0
0
0
0
0
0
0
0
0
0
0
0
0
0
0
0
0
0
0
0
0
0
0
0
0
0
0
0
0
0
0
0
0
0
0
0
0
0
0
0
0
0
0
0
0
0
0
0
0
0
0
0
0
0
0
0
0
0
0
0
0
0
0
0
0
0
0
0
0
0
0
0
0
0
0
0
0
0
0
0
0
0
0
0
0
0
0
0
0
0
0
0
0
0
0
0
0
0
0
0
0
0
0
0
0
0
0
0
2.5876067853811e-198
1.7836078959097e-252
0
0
0
0
0
0
0
0
0
0
0
0
0
0
0
0
0
0
0
0
0
0
0
0
0
0
0
0
0
0
0
0
0
0
0
0
0
0
0
0
0
0
0
0
0
0
0
0
0
0
0
0
0
0
0
0
0
0
0
0
0
0
0
0
0
0
0
0
0
0
0
0
0
0
0
0
0
0
0
0
0
0
0
0
0
0
0
0
0
0
0
0
0
0
0
0
0
0
1.9698021279441e-131
3.5881773696339e-132
0
3.3298683605368e-137
1.3971475638616e-134
4.2131291205008e-135
2.0014235074422e-139
7.2779036634916e-137
-1.9540852715745e-153
1.2029592832037e-141
5.0473816079237e-139
1.4743117428759e-139
2.2247412045961e-141
4.7707159950549e-157
7.3545163791462e-143
1.0028885971498e-142
2.9295558665422e-143
4.4204456250038e-145
0
2.9226089641901e-146
1.2770911182468e-146
1.5728311410956e-150
8.2017048974904e-148
5.1909112948019e-152
6.2878458483491e-151
5.3269949603823e-151
1.9529640903085e-151
1.6175935102547e-151
5.159572801003e-153
3.3962896969347e-153
1.1319739936632e-153
2.3824592429077e-154
4.5173717532696e-155
8.1830987884988e-156
1.4898219837624e-156
2.7094903499999e-157
0
8.9568510613664e-159
0
2.9609440868132e-160
0
9.7882455254832e-162
1.779681008606e-162
0
5.8832430029981e-164
0
9.6396794604117e-182
3.5361340364036e-166
0
1.1689699293897e-167
0
3.8643634029411e-169
7.0261152780748e-170
1.2774755051045e-170
2.3226827365537e-171
-1.2166986024289e-207
0
1.3960527342172e-173
2.5382776985767e-174
2.3206684158877e-213
8.391000656452e-176
0
2.7738845145297e-177
0
9.1698661637345e-179
1.6672483934063e-179
3.0313607152842e-180
5.5115649368805e-181
0
1.8220049378117e-182
3.3127362505669e-183
0
1.095119421675e-184
-2.6128403532606e-201
3.6202294931406e-186
6.5822354420739e-187
1.1967700803771e-187
2.1759456006857e-188
0
7.1932085973081e-190
1.5984907994018e-190
0
0
0
0
0
0
0
0
0
0
0
0
0
0
0
0
0
-6.7285944518177e-74
-1.8350378684411e-73
-3.3364323654018e-74
2.0406454253473e-60
2.3855892334666e-57
7.4870821101254e-56
4.8765339351398e-55
2.4871659106021e-54
1.1496895231865e-53
5.213225488497e-53
1.9050731102651e-52
9.7269293066899e-52
1.9438074290628e-49
4.9549173720527e-48
1.8120586238507e-47
8.9489484934527e-47
6.0216005324847e-46
1.9481032091624e-45
6.7252765343414e-45
1.5453751223915e-44
2.1870384235525e-44
2.8534935074972e-44
2.7837239998352e-44
3.2354180697357e-44
3.8934915285283e-44
6.0592300277221e-44
9.191296858619e-44
8.6506304491252e-44
8.9767984920462e-44
7.4558406720085e-44
4.0085484316286e-44
9.8636819209705e-45
1.4523835900723e-45
1.8313616788294e-46
2.6147164248382e-47
2.585787080338e-48
8.7018892726085e-49
8.2349349570443e-50
1.4219742034018e-50
5.0236721175885e-51
5.4595430276136e-52
1.8173131597929e-52
2.0245583294721e-53
3.5928133962959e-54
1.2726416641662e-54
1.4066356702047e-55
4.4287870961465e-56
5.20675152219e-57
9.3015099443247e-58
3.294707878345e-58
3.6597025782595e-59
1.150341266884e-59
1.3582380945128e-60
2.4122374312925e-61
1.0688423876038e-61
1.0141836954081e-62
3.0498289023808e-63
3.6130145332446e-64
6.4731284812362e-65
2.1383474216811e-65
2.5471784648859e-66
3.0309338796889e-67
8.2875178966128e-68
1.6149208500595e-68
3.0138795572783e-69
1.2948584588108e-69
3.4190375764566e-70
3.782581598742e-71
8.8510635834005e-72
9.6308255361723e-73
1.6932431860758e-73
7.2268619440217e-74
1.6349492490393e-74
1.4414403992803e-75
2.4492347835321e-76
1.0279428407957e-76
2.6486129117678e-77
5.7885222005285e-78
1.0468853428475e-78
8.6690853064592e-80
3.3141218711102e-80
7.3845325300036e-81
2.8681792303079e-81
0
0
0
0
0
0
0
0
0
8.9056558424513e-43
1.2644694557791e-41
1.9623694083918e-41
2.0524864085652e-40
-2.6172271031082e-47
-1.0195788231248e-57
0
-3.1861838222649e-59
1.1951864771552e-39
-3.3198834585912e-53
0
-3.2944368572596e-81
1.7842629404684e-57
1.5063391129317e-41
5.4404391958244e-55
1.8926887759399e-54
8.8550898715961e-54
3.9991154251149e-53
1.5224421580785e-52
7.5835970456594e-52
1.3452663211922e-49
3.1231303062343e-43
2.0074285203985e-47
6.8664065556394e-47
1.0037611644901e-42
2.1416847413079e-45
6.9890734892857e-40
8.886712917615e-44
2.3271996320758e-44
1.2230718514147e-42
2.9657187534266e-44
5.3537139606856e-44
8.1697226297722e-44
6.1490877292228e-44
7.0826639300748e-44
2.4027720111821e-43
9.1151236596634e-44
4.6928671841584e-44
3.6185023710868e-44
6.065141080478e-44
3.1531340524993e-45
5.0924815574132e-46
3.1316206392575e-46
1.5102626836924e-47
1.3275523422217e-46
5.6360646208712e-49
1.0565150524807e-49
1.3505224030321e-48
3.97268082295e-51
9.6351709143824e-50
1.4828512094257e-52
2.7866628647149e-53
1.371315197229e-51
1.0462396904227e-54
1.0422018942339e-52
3.8818952670012e-56
7.2991309289382e-57
1.4582573457153e-54
2.7389982560612e-58
1.0681709872845e-55
1.0159220292732e-59
2.8267686221486e-60
4.5695623109602e-57
3.3772789077705e-61
2.5630285297918e-58
2.7069819388171e-63
5.091583829778e-64
1.0965655271475e-59
7.3412276973479e-64
3.4871667060436e-66
2.4289993716219e-65
1.2659130185977e-67
2.3479302682141e-64
2.0161998471879e-63
4.7016805770848e-64
1.5435105810568e-65
2.7179438110882e-64
1.6388050744466e-68
1.3390300873472e-72
2.7811001428377e-67
1.8282355578648e-67
1.0349598741751e-74
1.6402335133441e-69
1.4492901589914e-68
3.1914967428454e-69
2.9017969206569e-70
1.505173925945e-69
9.2721491417834e-74
2.4240805081741e-70
7.3625725243928e-72
2.5205035811567e-71
0
0
0
0
0
0
0
2.9636390830728e-33
1.950599160429e-31
6.2284693961414e-30
1.2794433187544e-28
1.907485365788e-27
2.1591617520991e-26
1.885397500363e-25
1.3849529967624e-24
1.0022168101921e-23
7.5716990173237e-23
5.5020332413336e-22
3.5679080861778e-21
1.9957560666915e-20
9.4905902565933e-20
3.8257450056335e-19
1.3116788929281e-18
3.8494283032905e-18
9.7586831058131e-18
2.1646570164074e-17
4.2725965407928e-17
7.6467882515044e-17
1.2610866105333e-16
1.9282891516108e-16
2.6923558674876e-16
3.2729953604623e-16
3.4073179201125e-16
3.3592754891157e-16
3.1670357490967e-16
2.7385444930253e-16
2.0621533519083e-16
1.2899173289841e-16
6.3619911031431e-17
2.3849764152313e-17
6.9366700200096e-18
1.7545700035157e-18
4.5005294251417e-19
1.2649001930831e-19
3.8572291903995e-20
1.2355714604588e-20
4.0593732043595e-21
1.3457760919259e-21
4.4417506878893e-22
1.4425394914108e-22
4.5695008975652e-23
1.4052711231911e-23
4.1956365996588e-24
1.2207108237576e-24
3.4799781667212e-25
9.7686088859397e-26
2.7086683028692e-26
7.429845475238e-27
2.0171627429793e-27
5.4224810148255e-28
1.4440179892485e-28
3.8119095545807e-29
9.9813217380082e-30
2.5939106823472e-30
6.6934513956923e-31
1.7157375800039e-31
4.3703490991435e-32
1.1066019070249e-32
2.786188335265e-33
6.9774363929214e-34
1.7384409520112e-34
4.3102826829016e-35
1.0637225700002e-35
2.6134593321169e-36
6.3936586320455e-37
1.5577770794454e-37
3.7805414102123e-38
9.1403217447275e-39
2.2018588419601e-39
5.2856184333985e-40
1.2645464643808e-40
3.0154872232741e-41
7.1682313721328e-42
1.698805800037e-42
4.0141677711134e-43
9.4581874656306e-44
2.2223851935765e-44
5.2079426454321e-45
1.2172592129429e-45
2.8379375510692e-46
6.6001948739258e-47
1.5313506025796e-47
3.5447434536605e-48
8.18681410322e-49
1.8866228857032e-49
4.3389176165322e-50
9.944448587002e-51
2.3074365721162e-51
4.6049764491108e-52
1.9500067091709e-52
0
0
0
0
0
0
2.717885395089e-33
2.6023027306508e-31
1.1262553298853e-29
3.045384089797e-28
5.8384935981461e-27
8.5312725468262e-26
9.8046261202908e-25
8.981329497652e-24
6.7348788372885e-23
4.2466218893721e-22
2.509325560807e-21
1.6529781041002e-20
1.1100783766043e-19
6.5705760535183e-19
3.4140930237069e-18
1.5277313238585e-17
5.6897287580285e-17
1.7360754566576e-16
4.3495209678771e-16
9.1138341943677e-16
1.6559894315367e-15
2.7336391584637e-15
4.262382659622e-15
6.3700395674772e-15
8.9553771554047e-15
1.1183572218391e-14
1.1891295263182e-14
1.1769472752121e-14
1.1186849399115e-14
9.813831772113e-15
7.5220883536213e-15
4.819408121789e-15
2.4582968589706e-15
9.6797600120743e-16
3.0108623180607e-16
8.2224313216203e-17
2.2635999565875e-17
6.7578284147661e-18
2.1798397143643e-18
7.3862630811893e-19
2.5659374033794e-19
8.9752478577509e-20
3.116259031308e-20
1.061732358251e-20
3.5188569256359e-21
1.1283639725747e-21
3.4960641766677e-22
1.0495729661112e-22
3.0704958547218e-23
8.80783599208e-24
2.4892727977799e-24
6.9499184618873e-25
1.9189874519859e-25
5.2426648657698e-26
1.4177988365905e-26
3.7977366791709e-27
1.008285117935e-27
2.6550617196936e-28
6.9381398819254e-29
1.8000934036331e-29
4.6388487425196e-30
1.187819118983e-30
3.0231751544488e-31
7.6504115872382e-32
1.9254792364656e-32
4.8210209468984e-33
1.2011290745996e-33
2.9784275186493e-34
7.3522470720957e-35
1.8070551581053e-35
4.4230081269128e-36
1.0782776212001e-36
2.6186457135337e-37
6.3360510428298e-38
1.5276185164535e-38
3.6704597668704e-39
8.789962946793e-40
2.0982796106343e-40
4.9933887600431e-41
1.1847494787708e-41
2.8028372786551e-42
6.6122364300583e-43
1.5556607879198e-43
3.6503333680897e-44
8.5434752030943e-45
1.9945857976272e-45
4.6453363156385e-46
1.0793373701886e-46
2.5020426320841e-47
5.7878347732789e-48
1.3341663524625e-48
3.112667142077e-49
6.2558667637897e-50
2.6562481306014e-50
0
0
0
0
0
1.1953706612965e-33
1.5797613899412e-31
8.7796502681308e-30
2.9247113892417e-28
6.7961110173091e-27
1.1938706898402e-25
1.6638310534992e-24
1.8869030661462e-23
1.7642918395431e-22
1.3770083525704e-21
8.8659687347258e-21
4.9191654372856e-20
2.5106809121221e-19
1.4527684887165e-18
1.211603522698e-17
8.3980458551699e-17
4.2312553810052e-16
1.8270697043703e-15
6.3449368560201e-15
1.6119504694506e-14
2.9353710634286e-14
4.1258507182873e-14
5.1843260360756e-14
6.5552634387949e-14
8.7697729019982e-14
1.2238244687754e-13
1.6388591407989e-13
1.8827984600726e-13
1.8906839562379e-13
1.826162630581e-13
1.6345600874056e-13
1.2823757773419e-13
8.3881470163865e-14
4.3752283982164e-14
1.7814148326218e-14
5.8599980776382e-15
1.7304672996114e-15
5.1767826308225e-16
1.6644486026646e-16
5.7312271140041e-17
2.0623903814952e-17
7.5800389238904e-18
2.7958843889762e-18
1.0214873345112e-18
3.6594779573339e-19
1.2747103352689e-19
4.2878978508344e-20
1.3875346725638e-20
4.3220308791926e-21
1.3025545801007e-21
3.8266284454439e-22
1.1034677334651e-22
3.1375891472891e-23
8.815337075418e-24
2.4490623060565e-24
6.7303727467294e-25
1.8305473669523e-25
4.9309117270215e-26
1.3164235773989e-26
3.4855510638199e-27
9.1578736488719e-28
2.3887404685185e-28
6.188337621927e-29
1.5928416478641e-29
4.0748704556413e-30
1.0364155567195e-30
2.6215463898986e-31
6.5962757280981e-32
1.6514392447896e-32
4.1147718073779e-33
1.0205584117152e-33
2.5201249695966e-34
6.1969175415729e-35
1.5176473484937e-35
3.7023277189283e-36
8.9980977962765e-37
2.1790014104857e-37
5.2583655516526e-38
1.2646860424708e-38
3.0318142112573e-39
7.2453071643944e-40
1.726192719917e-40
4.100544862395e-41
9.7129920415078e-42
2.2943571740553e-42
5.4050663430027e-43
1.2700089345383e-43
2.9765304728426e-44
6.9589355872569e-45
1.6230348749968e-45
3.777048221909e-46
8.7582255729727e-47
2.0549085061923e-47
4.1593518205326e-48
1.7716386775447e-48
0
0
0
0
0
4.0204913320711e-32
3.7222010735847e-30
1.649206806051e-28
4.6921395732502e-27
9.7000534151926e-26
1.5611676785914e-24
2.043165606244e-23
2.2312845025193e-22
2.0628796376463e-21
1.6293339932388e-20
1.0868329214033e-19
6.2190544668481e-19
2.9613048391614e-18
1.3740867836468e-17
8.1451317103076e-17
6.4411974327962e-16
1.4342109921874e-14
1.3780485443247e-13
6.1367456234983e-13
1.6780013704768e-12
2.2978715080594e-12
2.183296464747e-12
1.762960745834e-12
1.2275708773927e-12
1.1174173328689e-12
1.2127654015959e-12
1.4557142182706e-12
1.7488460448411e-12
1.843520492449e-12
1.8058170646466e-12
1.6488176404591e-12
1.320257250911e-12
8.7295899360626e-13
4.6042306169052e-13
1.9265498675549e-13
6.7223410374453e-14
2.1659826697196e-14
7.1161767303647e-15
2.4895068045916e-15
9.2274611336302e-16
3.5460476396483e-16
1.3834561331992e-16
5.393649970075e-17
2.0786972134774e-17
7.8551882166516e-18
2.8878512701307e-18
1.0245345584001e-18
3.4846633203655e-19
1.1336728893568e-19
3.5400064156701e-20
1.0694022853352e-20
3.1536511874082e-21
9.1422080317451e-22
2.6152010587529e-22
7.3925156104695e-23
2.0658489528579e-23
5.7093903042513e-24
1.5614743528572e-24
4.2292679071901e-25
1.1352827609219e-25
3.0222519670166e-26
7.9832374205215e-27
2.0933910093974e-27
5.4516009369956e-28
1.4104688673722e-28
3.6267535307189e-29
9.2709473392542e-30
2.3567116790237e-30
5.9590828773662e-31
1.49916101195e-31
3.753273512511e-32
9.3530929903864e-33
2.3204220211164e-33
5.7322243340771e-34
1.4102509530404e-34
3.4558465859403e-35
8.43647131362e-36
2.0519893915004e-36
4.9733986348344e-37
1.2012904186292e-37
2.8920714847717e-38
6.9403794062903e-39
1.6604084452397e-39
3.9604649802583e-40
9.4192591897863e-41
2.2339035545074e-41
5.2835410841236e-42
1.2463294258222e-42
2.9323831521937e-43
6.8819926836802e-44
1.6113920679692e-44
3.7591612701665e-45
8.8712023968687e-46
1.8084055483932e-46
7.7302525132337e-47
0
0
0
0
1.9168615110986e-45
6.4230349729638e-31
5.1426053147556e-29
2.025935394097e-27
5.2294081037087e-26
9.9488256617326e-25
1.4890594037938e-23
1.8304494566836e-22
1.9003165592725e-21
1.699158964282e-20
1.3213834820375e-19
8.9102336148104e-19
5.2324040660243e-18
2.580603646725e-17
1.1172305003546e-16
4.672153377541e-16
2.6769270693104e-15
4.4690862708874e-14
5.0911955199383e-13
6.2259557163076e-12
6.2601030580746e-11
9.6410713880852e-11
8.6464251030784e-11
5.8127112662205e-11
3.289498643435e-11
1.8119821483198e-11
1.1535863495502e-11
1.0384444791218e-11
1.0941571766382e-11
1.1606063889339e-11
1.1527155295129e-11
1.0748224880658e-11
8.7059824788158e-12
5.8000986802209e-12
3.0975708841725e-12
1.3396141188292e-12
4.9987511481967e-13
1.7749277168649e-13
6.4792171360005e-14
2.4963672221982e-14
1.0062034895338e-14
4.1593294780275e-15
1.7313062716022e-15
7.1649088628964e-16
2.9253144083363e-16
1.1714880551276e-16
4.5696303233536e-17
1.7206642985891e-17
6.1978909450475e-18
2.1235719365939e-18
6.9249310143993e-19
2.164345367728e-19
6.5518100696943e-20
1.9399242524853e-20
5.6543188207279e-21
1.627051887211e-21
4.6261017138887e-22
1.3000091621064e-22
3.612391327535e-23
9.9327945949319e-24
2.704737092715e-24
7.299224604785e-25
1.9534309388882e-25
5.1870179120884e-26
1.3672094961265e-26
3.5787326482069e-27
9.3060147639135e-28
2.4048489606149e-28
6.1778564103353e-29
1.5781144138658e-29
4.0096302616032e-30
1.0135398072986e-30
2.5494437190644e-31
6.3827603869012e-32
1.590794564886e-32
3.9476648968887e-33
9.7557361290549e-34
2.4012734755396e-34
5.8877443450595e-35
1.4382752688405e-35
3.5008802173748e-36
8.4919571913592e-37
2.052975487451e-37
4.9471205536989e-38
1.1883893755263e-38
2.846066021173e-39
6.7959681399915e-40
1.6181397694812e-40
3.8421587078586e-41
9.098381922181e-42
2.1488698826761e-42
5.0629315928253e-43
1.1883883180133e-43
2.8210470568092e-44
5.791535574721e-45
2.4854099775925e-45
0
0
0
0
-2.2211733480353e-57
6.4594179204528e-30
4.806792833503e-28
1.773406951346e-26
4.3129357704066e-25
7.7649426822249e-24
1.1022887395511e-22
1.2863289145441e-21
1.2699393103196e-20
1.085289005188e-19
8.1546784449591e-19
5.4147977481683e-18
3.1791910376878e-17
1.6175147608437e-16
7.2450022119986e-16
2.7256107905164e-15
1.0362888975671e-14
7.5146139614713e-14
7.1757716730874e-13
7.5913156971574e-12
5.5029462187382e-11
6.6732582317315e-10
1.9910472777469e-09
2.7084268916715e-09
1.8423561828911e-09
7.6163940839068e-10
2.6939327477828e-10
1.1870454572197e-10
7.433903874012e-11
6.1303890281745e-11
5.629254520644e-11
4.9605409329038e-11
3.8374062126418e-11
2.4683693349887e-11
1.304999005494e-11
5.8719518003921e-12
2.4138680470053e-12
9.7578755173292e-13
4.0539740732545e-13
1.7489288837925e-13
7.756873985183e-14
3.4797405609194e-14
1.5569093834065e-14
6.8876473444788e-15
2.9994580528176e-15
1.2812776144108e-15
5.3376251717312e-16
2.148668021239e-16
8.2671883726938e-17
3.0127395600797e-17
1.036362865955e-17
3.3799559875405e-18
1.0563645267752e-18
3.2040797206405e-19
9.5261169429078e-20
2.7914598707644e-20
8.0778668826377e-21
2.3093151570113e-21
6.5237302690121e-22
1.8221308707439e-22
5.035947237814e-23
1.3783492668231e-23
3.7387746354984e-24
1.0056679043545e-24
2.6838540755608e-25
7.1095096149805e-26
1.8701462957065e-26
4.8868594923371e-27
1.2689701521485e-27
3.2754900140946e-28
8.4067672188036e-29
2.1459721924512e-29
5.449630282007e-30
1.3770684121571e-30
3.463220052333e-31
8.6701169506687e-32
2.1610687564586e-32
5.3639441306726e-33
1.3259907668964e-33
3.2651386052123e-34
8.0099162228125e-35
1.9578361338737e-35
4.7687024072071e-36
1.1575775681991e-36
2.800745770946e-37
6.7548563880122e-38
1.6241276581552e-38
3.8933763572622e-39
9.3062191697379e-40
2.2181859590575e-40
5.2726624505638e-41
1.2501420354361e-41
2.9526578668984e-42
7.0511589318286e-43
1.4578093968282e-43
6.28273232045e-44
0
0
0
0
-3.8893821400744e-63
4.6343879324396e-29
3.310811413449e-27
1.1732399146773e-25
2.7436487844675e-24
4.7532809655368e-23
6.496622633376e-22
7.2956901932557e-21
6.9224772706535e-20
5.6724200636139e-19
4.0893779211932e-18
2.6242442267487e-17
1.5094015866555e-16
7.6962867873132e-16
3.5205848668881e-15
1.3881129458756e-14
4.6268710809358e-14
1.6346564136657e-13
8.3522551166958e-13
6.0599486611294e-12
3.7873259650467e-11
3.677697908217e-10
5.0098611895445e-09
3.4195991871665e-08
3.2515548468413e-08
1.9919070414105e-08
9.6050830842442e-09
3.8746015332608e-09
1.7040659641534e-09
8.6317350311049e-10
4.7979986062405e-10
2.7420379322711e-10
1.483580055492e-10
7.2933152210376e-11
3.3825242773505e-11
1.5691958809938e-11
7.3856056482225e-12
3.5448129261638e-12
1.7337419988324e-12
8.5911174977969e-13
4.2705655948323e-13
2.1079057727829e-13
1.0257589037413e-13
4.9040991871498e-14
2.3007355304198e-14
1.0576546853478e-14
4.7439340829754e-15
2.0585298494884e-15
8.5394382096729e-16
3.3456282339956e-16
1.2281518053523e-16
4.2248091850309e-17
1.3743230329354e-17
4.2899555853881e-18
1.3034200608759e-18
3.8912331996567e-19
1.146201616003e-19
3.3344569525429e-20
9.5808357702918e-21
2.7197188404362e-21
7.6329380591905e-22
2.1197614875996e-22
5.8300259179733e-23
1.5890839725347e-23
4.2950635141186e-24
1.1517476944748e-24
3.0655312334532e-25
8.1020096288254e-26
2.1270651295819e-26
5.5490418425863e-27
1.4389302809647e-27
3.7099677320262e-28
9.5131275401389e-29
2.4266365040926e-29
6.1590248004074e-30
1.5557348917716e-30
3.9116495065754e-31
9.7918235346538e-32
2.4407313072464e-32
6.058957178893e-33
1.4981724886682e-33
3.6903910510855e-34
9.0570474653526e-35
2.2149216104852e-35
5.3980674395612e-36
1.3112167050708e-36
3.1747701865345e-37
7.6629294701144e-38
1.844008394697e-38
4.4244143668632e-39
1.0585349710652e-39
2.5258201956976e-40
6.0031979626623e-41
1.4423067507136e-41
3.002938094954e-42
1.3000487398458e-42
0
0
0
0
1.2154326714573e-64
2.5479226238131e-28
1.7768389133431e-26
6.1361354880578e-25
1.3966551232797e-23
2.3543724944624e-22
3.1291829185107e-21
3.4117558886816e-20
3.1352214625643e-19
2.4795054422393e-18
1.7193326532697e-17
1.0608483634632e-16
5.8849150950183e-16
2.9445460199801e-15
1.3381010189626e-14
5.4304251339179e-14
1.9380477883047e-13
5.6450686596632e-13
1.5638502528307e-12
5.2876963803323e-12
2.158643734735e-11
1.3315670158492e-10
2.1455614555143e-09
1.4650684284702e-08
1.8011913218173e-07
3.4141877028388e-07
2.3087331182794e-07
1.2369013926675e-07
6.2533653243167e-08
2.6743256468684e-08
9.6279909650704e-09
3.3252946498636e-09
1.2288519272068e-09
4.1339170461508e-10
1.0826968981087e-10
3.1760348809432e-11
1.5167448306633e-11
8.6552432439401e-12
5.0654217360693e-12
2.9350305547114e-12
1.6648781393785e-12
9.2077499753975e-13
4.9609979925454e-13
2.6051069207028e-13
1.3351085363227e-13
6.68363792735e-14
3.2614265794947e-14
1.5404355951934e-14
6.9583273931442e-15
2.9628514267617e-15
1.1745762539696e-15
4.3131614090922e-16
1.4752521213234e-16
4.7713077554685e-17
1.4863306584397e-17
4.5255033784812e-18
1.357218304831e-18
4.01862647133e-19
1.1748607048875e-19
3.391265195616e-20
9.6698874813924e-21
2.726100200965e-21
7.6054058809055e-22
2.1014165302961e-22
5.7543912696747e-23
1.5625278099352e-23
4.2093199037129e-24
1.1255013076258e-24
2.9881798522972e-25
7.8805258301323e-26
2.0650868395219e-26
5.3788632065344e-27
1.3929487446407e-27
3.5874505640128e-28
9.1906863405452e-29
2.3427102230984e-29
5.9427611170211e-30
1.5005182531848e-30
3.7718656122403e-31
9.4407514717674e-32
2.3532128664625e-32
5.8423127077696e-33
1.4449010005677e-33
3.5602321993556e-34
8.7409667794235e-35
2.1386145074533e-35
5.2148960328316e-36
1.2674900853921e-36
3.0709483098164e-37
7.4177302908904e-38
1.7863808518146e-38
4.2901671448678e-39
1.026158963127e-39
2.4805790955649e-40
5.2010646525959e-41
2.262484669786e-41
0
0
0
0
0
1.1200682743091e-27
7.704583296563e-26
2.6194535517143e-24
5.8590900953297e-23
9.6908419818611e-22
1.2619312640489e-20
1.3452965890145e-19
1.2064845135102e-18
9.2807528005053e-18
6.2199912660698e-17
3.6872375706951e-16
1.9569164014518e-15
9.4260322349363e-15
4.1399912607431e-14
1.684115994725e-13
6.1286968354953e-13
1.9937013060724e-12
5.1729278483954e-12
1.0699770456515e-11
2.3950128148539e-11
5.467364831765e-11
4.0796774155038e-10
4.8030785085036e-09
8.224599522485e-08
7.3265696552125e-07
2.9533855353917e-06
3.2248773748113e-06
1.9180758518346e-06
8.1395126843165e-07
2.4215346409405e-07
6.286321945933e-08
2.245135790561e-08
8.0688791102224e-09
1.8297534420873e-09
1.8861814139109e-10
2.3375852662904e-11
1.4152565826734e-11
1.0629085102984e-11
7.3065747801253e-12
4.6860295476189e-12
2.9181144063598e-12
1.7654157103361e-12
1.0348771186293e-12
5.8864067678047e-13
3.2558474240374e-13
1.7507722681978e-13
9.1027138731939e-14
4.5235144171061e-14
2.114782972069e-14
9.1537739699783e-15
3.6305946012193e-15
1.3204442282646e-15
4.4640750716734e-16
1.4334885902582e-16
4.4625305478468e-17
1.3639202664147e-17
4.1123224704206e-18
1.2238617260084e-18
3.5942654891885e-19
1.0419096216742e-19
2.9835738547783e-20
8.4479848225383e-21
2.367387083537e-21
6.5707024547729e-22
1.8073987206992e-22
4.9298422281858e-23
1.3340166701944e-23
3.5828708775863e-24
9.5547162558592e-25
2.5309329087983e-25
6.661396398743e-26
1.7426298013023e-26
4.5323441037117e-27
1.1722807879628e-27
3.0160333438845e-28
7.7202870272575e-29
1.9665901269988e-29
4.9861058566591e-30
1.2585049757301e-30
3.1627706718244e-31
7.9153243847558e-32
1.9729801324234e-32
4.8988098009042e-33
1.2117964827301e-33
2.9867177003729e-34
7.3355924548823e-35
1.7955650767181e-35
4.3806428828298e-36
1.0653425245428e-36
2.5828048125716e-37
6.2436560191935e-38
1.503080703694e-38
3.6561843602522e-39
7.7202702177464e-40
3.3753627617918e-40
0
0
0
1.440944942222e-57
9.006498031572e-42
4.0314271634927e-27
2.7579779416611e-25
9.3053749259305e-24
2.0618986402902e-22
3.3698372902555e-21
4.3276621434653e-20
4.5438366223024e-19
4.0064504610995e-18
3.0215882193994e-17
1.9778728606283e-16
1.1378857134981e-15
5.8013036906924e-15
2.6581564581311e-14
1.1059482229922e-13
4.2862150370316e-13
1.5320167756666e-12
5.1369753561851e-12
1.5275975529644e-11
4.1133667468535e-11
6.2307996087475e-11
8.4148074404187e-11
1.1072248443581e-10
1.6309270625587e-09
2.7880702435827e-08
4.7235963719929e-07
7.8365286110571e-06
3.2322876809608e-05
2.7028681561989e-05
1.3865935956122e-05
5.0562657714267e-06
1.5865082648056e-06
5.7875239397891e-07
2.0896096815033e-07
5.478905087256e-08
6.9107893971896e-09
2.7988213190439e-10
3.9638693110395e-11
1.6527231994652e-11
1.2135908189005e-11
9.8999645132011e-12
7.1886674148358e-12
4.8235242606069e-12
3.1432937444261e-12
1.9977803337439e-12
1.2347099401035e-12
7.4056401254538e-13
4.2856238025451e-13
2.3656626869737e-13
1.2250933833658e-13
5.8424916749888e-14
2.5280097067073e-14
9.8819742869875e-15
3.5274427031621e-15
1.1767268158484e-15
3.7635611909927e-16
1.1752404798228e-16
3.6127648133055e-17
1.0953896070424e-17
3.2754599914607e-18
9.6603636224504e-19
2.8120843013059e-19
8.0872274082096e-20
2.3000053201798e-20
6.4741403812134e-21
1.8049614625483e-21
4.9871352644897e-22
1.366361784344e-22
3.7138305001115e-23
1.0018692604695e-23
2.6835277452461e-24
7.1394587969232e-25
1.8872663681015e-25
4.9584099414335e-26
1.2951350463533e-26
3.3640605299432e-27
8.6914661154797e-28
2.2340848494897e-28
5.7144418764477e-29
1.4547875654626e-29
3.6868503191439e-30
9.3028314693948e-31
2.3374779225243e-31
5.8494822804424e-32
1.4580952841639e-32
3.6208493741629e-33
8.9587080155194e-34
2.2087268084032e-34
5.4268629741042e-35
1.328961650956e-35
3.243929644997e-36
7.8944442865692e-37
1.9130285129417e-37
4.6830477302987e-38
9.9592475296875e-39
4.3775187013993e-39
0
0
0
2.0125758177615e-55
1.2485219751604e-40
1.1992844166201e-26
8.2179543717436e-25
2.7698135912469e-23
6.120049346054e-22
9.9471721486452e-21
1.2677455523513e-19
1.3195629315088e-18
1.1510835428819e-17
8.5753877958547e-17
5.5344961384519e-16
3.1265082450836e-15
1.5580379010072e-14
6.9042197786473e-14
2.7323593274254e-13
9.8327282769206e-13
3.2795188568051e-12
1.0263540371067e-11
3.152141669386e-11
9.2446913985424e-11
2.6086242892122e-10
3.1713989720227e-10
2.6272732454547e-10
4.3315048777341e-10
6.5610578771269e-09
2.0968872933564e-07
3.1234257716394e-06
2.1935333255888e-05
0.00017314083612792
0.00017399634950771
0.00010500553308013
3.9980698746697e-05
1.3116752260205e-05
5.095549757677e-06
1.7029871403182e-06
3.1851598789293e-07
1.9602388501416e-08
8.3488942514897e-10
1.5551892142051e-10
4.3533935856659e-11
1.5775639438954e-11
1.22757224842e-11
1.0454657818912e-11
7.8597432634143e-12
5.483150736094e-12
3.7509927254805e-12
2.5131759563992e-12
1.6279915888971e-12
1.0049803546465e-12
5.8020934733732e-13
3.0668594110645e-13
1.4571082966645e-13
6.17262030365e-14
2.3500180794255e-14
8.2266850207146e-15
2.7245596952423e-15
8.7341811660993e-16
2.7442250547464e-16
8.4881936287768e-17
2.5869575347269e-17
7.7704236197407e-18
2.3016323319988e-18
6.7292097102999e-19
1.9438777239669e-19
5.5533638722034e-20
1.5702713265356e-20
4.3976755986277e-21
1.2205682322794e-21
3.3591027786127e-22
9.170985067882e-23
2.4850188251053e-23
6.6855436067375e-24
1.7864641485304e-24
4.7429252417271e-25
1.2514824468802e-25
3.2828533035953e-26
8.5632554204403e-27
2.2217298137726e-27
5.7346287985021e-28
1.4728930931206e-28
3.7650701579844e-29
9.5805285839187e-30
2.4271357205996e-30
6.1228829117285e-31
1.53829671303e-31
3.8495299227566e-32
9.5965779186244e-33
2.3835302257094e-33
5.8989127199706e-34
1.4548544272403e-34
3.5760585931237e-35
8.7624346444357e-36
2.1376977955263e-36
5.2671970754203e-37
1.1282683491175e-37
4.9871650612365e-38
0
0
0
1.8230180357737e-55
3.9582043480646e-42
2.8940489328162e-26
2.0032090735827e-24
6.7966117798399e-23
1.5080661844197e-21
2.4551279494845e-20
3.1272183876132e-19
3.2468905334651e-18
2.8192751779493e-17
2.088087261674e-16
1.3369986358815e-15
7.4787396032027e-15
3.6857832443071e-14
1.6061453688206e-13
6.2271019963756e-13
2.1544153490155e-12
6.6816802622583e-12
1.8851419061495e-11
5.1310542109653e-11
1.3666098170881e-10
4.1950261030726e-10
1.1770572427779e-09
2.0965220002928e-09
1.797681670623e-09
2.7693950491345e-09
3.4174233992025e-08
4.2907422814986e-07
8.1099121559351e-06
8.6945607442021e-05
0.00075642971619458
0.0008111941434018
0.0005122823497066
0.00026047463502252
0.00012113105930171
4.7297166016941e-05
1.1865621751501e-05
1.2601173698796e-06
4.2389540342873e-08
3.9071187219002e-09
9.6962719498838e-10
1.9340481778173e-10
4.7459892359989e-11
1.6906031233255e-11
1.3838412992876e-11
1.2282946662191e-11
9.6385653044023e-12
7.1079772941449e-12
5.1160660135978e-12
3.5304646254425e-12
2.2729601829644e-12
1.3310658958349e-12
6.9500857342503e-13
3.2066266466329e-13
1.3149035944329e-13
4.8889992541972e-14
1.6943821547902e-14
5.615408211678e-15
1.8103589883942e-15
5.7249120607661e-16
1.7809264169056e-16
5.454683970536e-17
1.6459428858082e-17
4.8973889993003e-18
1.4383659791791e-18
4.1741756035683e-19
1.19801286287e-19
3.403143011033e-20
9.5745844853642e-21
2.6695551007831e-21
7.3801970880038e-22
2.0240229340056e-22
5.5089656582653e-23
1.4886875044759e-23
3.9955128652933e-24
1.065419204008e-24
2.8234452026886e-25
7.4382474076248e-26
1.9485281041524e-26
5.0768193154735e-27
1.3158989206553e-27
3.3938240072213e-28
8.7111649319218e-29
2.2256763548803e-29
5.6613553465218e-30
1.4339060572168e-30
3.6168290854853e-31
9.08664603523e-32
2.2740783838042e-32
5.6700651989384e-33
1.4086517033511e-33
3.487355246217e-34
8.6052852196626e-35
2.1139021700027e-35
5.2434826396204e-36
1.1314657580249e-36
5.0310421599875e-37
0
0
0
3.3424269962889e-56
2.5577090633232e-56
5.0861846152654e-26
3.6137541099171e-24
1.2529110283006e-22
2.8285561901564e-21
4.6736724051084e-20
6.0249387156915e-19
6.3093899738948e-18
5.5102824291235e-17
4.0937379097349e-16
2.6212488473384e-15
1.4627508335747e-14
7.1690381565586e-14
3.1016189616397e-13
1.1912631639048e-12
4.0531288495692e-12
1.2392254728189e-11
3.3641129791433e-11
8.1459921304345e-11
1.8640168524016e-10
4.6983433734346e-10
1.6064737573776e-09
7.6074398011591e-09
2.2825097272142e-08
3.1659426259347e-08
4.4835012798498e-08
1.5374813715964e-07
1.5761846673539e-06
2.642706397514e-05
0.00026718919211039
0.0023654845547365
0.0053152741198442
0.0037243977218812
0.0021149482505319
0.0010780828452878
0.00036308933873637
5.498469775418e-05
2.2155972306198e-06
1.1592456068559e-07
2.8286798011284e-08
5.5722653932801e-09
1.0590416774152e-09
2.1140000753583e-10
5.2439962239165e-11
1.9110824188802e-11
1.7537446252705e-11
1.6616718037964e-11
1.3899085423495e-11
1.0617479704494e-11