/*--------------------------------*- C++ -*----------------------------------*\
  =========                 |
  \\      /  F ield         | OpenFOAM: The Open Source CFD Toolbox
   \\    /   O peration     | Website:  https://openfoam.org
    \\  /    A nd           | Version:  7
     \\/     M anipulation  |
\*---------------------------------------------------------------------------*/
FoamFile
{
    version     2.0;
    format      ascii;
    class       volScalarField;
    location    "0.7";
    object      alpha.water;
}
// * * * * * * * * * * * * * * * * * * * * * * * * * * * * * * * * * * * * * //

dimensions      [0 0 0 0 0 0 0];

internalField   nonuniform List<scalar> 
6000
(
0
0
0
0
0
0
0
0
0
0
0
0
0
0
0
0
0
0
0
0
0
0
0
0
0
0
0
0
0
0
0
0
0
0
0
0
0
0
0
0
0
0
0
0
0
0
0
0
0
0
0
0
0
0
0
0
0
0
0
0
0
0
0
0
0
0
0
0
0
0
0
0
0
0
0
0
0
0
0
0
0
0
0
0
0
0
0
0
0
0
0
0
0
0
0
0
0
0
0
0
0
0
0
0
0
0
0
0
0
0
0
0
0
0
0
0
0
0
0
0
0
0
0
0
0
0
0
0
0
0
0
0
0
0
0
0
0
0
0
0
0
0
0
0
0
0
0
0
0
0
0
0
0
0
0
0
0
0
0
0
0
0
0
0
0
0
0
0
0
0
0
0
0
0
0
0
0
0
0
0
0
0
0
0
0
0
0
0
0
0
0
0
0
0
0
0
0
0
0
0
0
0
0
0
0
0
0
0
0
0
0
0
0
0
0
0
0
0
0
0
0
0
0
0
0
0
0
0
0
0
0
0
0
0
0
0
0
0
0
0
0
0
0
0
0
0
0
0
0
0
0
0
0
0
0
0
0
0
0
0
0
0
0
0
0
0
0
0
0
0
0
0
0
0
0
0
0
0
0
0
0
0
0
0
0
0
0
0
0
0
0
0
0
0
0
0
0
0
0
0
0
0
0
0
0
0
0
0
0
0
0
0
0
0
0
0
0
0
0
0
0
0
0
0
0
0
0
0
0
0
0
0
0
0
0
0
0
0
0
0
0
0
0
0
0
0
0
0
0
0
0
0
0
0
0
0
0
0
0
0
0
0
0
0
0
0
0
0
0
0
0
0
0
0
0
0
0
0
0
0
0
0
0
0
0
0
0
0
0
0
0
0
0
0
0
0
0
0
0
0
0
0
0
0
0
0
0
0
0
1.6410152959812e-37
3.7261678215609e-36
4.1558778906203e-35
3.0338731542268e-34
1.6300597478231e-33
6.8724042917414e-33
2.367285469836e-32
6.8498596793492e-32
1.6989556463207e-31
3.6679423941825e-31
6.9764395253471e-31
1.180375228061e-30
1.7907158875153e-30
2.4520129776443e-30
3.0473943469824e-30
3.4538891904505e-30
3.5845746963851e-30
3.4186546453442e-30
3.0054052908604e-30
2.4420625403156e-30
1.838443419537e-30
1.2849761326149e-30
8.354030879103e-31
5.0601618138398e-31
2.8597458313282e-31
1.509862779084e-31
7.4555286907591e-32
3.4464453549723e-32
1.4927224306415e-32
6.0619054294218e-33
2.3094944720162e-33
8.2586207894396e-34
2.7729169362189e-34
8.7440514913508e-35
2.5899725371323e-35
7.2060346703434e-36
1.8831291825851e-36
4.6212707674485e-37
1.0646456645647e-37
2.3015723498571e-38
4.6663835825308e-39
8.8670197899814e-40
1.5778430915617e-40
2.6267900949211e-41
4.0868083876687e-42
5.9346236248875e-43
8.0321160012298e-44
1.0115585228755e-44
1.1832680734545e-45
1.2829627402983e-46
1.2864136328546e-47
1.1897486980607e-48
1.0119726728714e-49
7.8902420328528e-51
5.6182581333642e-52
3.638024714959e-53
2.1319903469268e-54
1.1244779686562e-55
5.3036022164127e-57
2.220122701453e-58
8.1751332436754e-60
2.6197545917886e-61
7.2102599652749e-63
1.6763684079055e-64
3.2223894443735e-66
4.9743533076055e-68
5.9142127994761e-70
5.0723710414418e-72
2.786970776725e-74
7.3518631428726e-77
0
0
0
0
0
0
0
0
0
0
0
0
0
0
0
0
0
0
0
0
0
0
0
0
0
0
0
0
-1.5169522981696e-27
-2.7108473028767e-26
-2.3293110378821e-25
-1.2668254177777e-24
-4.7807473838085e-24
-1.2575694632595e-23
-1.9651708541871e-23
6.2942560872288e-24
1.6163115098457e-22
6.4365094873796e-22
1.7459498258053e-21
3.7679162788466e-21
6.8416721381592e-21
1.0761378854042e-20
1.4943399317673e-20
1.8587087527861e-20
2.0970124377968e-20
2.1710871158005e-20
2.085493574058e-20
1.8770470752067e-20
1.5953743804215e-20
1.2866188672138e-20
9.8587995268067e-21
7.1657375742035e-21
4.9225587120254e-21
3.1822193676668e-21
1.9279146062777e-21
1.0908958125638e-21
5.7504754124864e-22
2.8188256157988e-22
1.2833730893089e-22
5.4226525711478e-23
2.1252319191841e-23
7.7223575784649e-24
2.6005472509252e-24
8.1124033628377e-25
2.3429035651351e-25
6.2598066356675e-26
1.5458406699392e-26
3.5241916696185e-27
7.4066275007166e-28
1.4324727176173e-28
2.544123918055e-29
4.1388008300334e-30
6.1486406759228e-31
8.3115409891974e-32
1.0178997579092e-32
1.1235635518066e-33
1.1108101483005e-34
9.7614858893184e-36
7.5532088829581e-37
5.0856226922208e-38
2.9346050981663e-39
1.4223663711654e-40
5.6324425632937e-42
1.7500982086271e-43
4.0017496999118e-45
5.9877326018983e-47
4.398500126816e-49
1.4060200029556e-55
5.9964082800971e-57
2.2488256992715e-58
7.3371365795677e-60
2.0553472414675e-61
4.8622802353515e-63
9.5072998737843e-65
1.4924544833922e-66
1.8039620619471e-68
1.5725047890147e-70
8.7791417432622e-73
2.3525962057192e-75
0
0
0
0
0
0
0
0
0
0
0
0
0
0
0
0
0
0
0
0
0
0
0
0
0
0
0
0
-6.729320797544e-26
-1.3498297115607e-24
-1.3226624365678e-23
-8.4335583039069e-23
-3.9330703938449e-22
-1.4296983971838e-21
-4.2150416466634e-21
-1.0351750780666e-20
-2.1576808564851e-20
-3.8669280674459e-20
-6.0080857178818e-20
-8.1178762235242e-20
-9.4945760211191e-20
-9.4200791470538e-20
-7.4427221311133e-20
-3.5890727347052e-20
1.5881564373071e-20
7.1430161927175e-20
1.2002407841385e-19
1.5277093368293e-19
1.6510473770254e-19
1.5773112990497e-19
1.3571732784108e-19
1.0625261056061e-19
7.6164139120081e-20
5.0201322260985e-20
3.0520632817774e-20
1.7157230328441e-20
8.9357707899194e-21
4.3185947875116e-21
1.9392311781644e-21
8.09852304215e-22
3.1473357371181e-22
1.1385938659738e-22
3.834096325186e-23
1.2013150331431e-23
3.4997328441225e-24
9.4697453946654e-25
2.3766780330696e-25
5.5233226869948e-26
1.1862216389846e-26
2.3489264188625e-27
4.2773097818731e-28
7.1411744000415e-29
1.0893826433339e-29
1.5124951023341e-30
1.9025031441141e-31
2.156468375847e-32
2.1886294629787e-33
1.9736121944229e-34
1.5663808458808e-35
1.0812534684725e-36
6.3936185005225e-38
3.1741099075327e-39
1.2868475135991e-40
4.09192063001e-42
9.5713329895965e-44
1.4644478979419e-45
1.0996214475602e-47
1.827259457378e-54
7.9425235573766e-56
3.0347893650712e-57
1.0084566278119e-58
2.8762816682974e-60
6.9257141385254e-62
1.37793187264e-63
2.200340244417e-65
2.7046489189757e-67
2.3969046155844e-69
1.3600977969982e-71
3.703501058222e-74
0
0
0
0
0
0
0
0
0
0
0
0
0
0
0
0
0
0
0
0
0
0
0
0
0
0
0
0
2.2340127246043e-27
-6.2224193139696e-25
-1.259626562051e-23
-1.2172145669712e-22
-7.643359586376e-22
-3.5237660204545e-21
-1.2726526541471e-20
-3.7457974891722e-20
-9.2257841864325e-20
-1.9381775347257e-19
-3.5227209816127e-19
-5.5938284427456e-19
-7.7988345307133e-19
-9.5368069346141e-19
-1.0133284487611e-18
-9.124048436236e-19
-6.5045019185719e-19
-2.7854940420608e-19
1.1903168270172e-19
4.5645427074719e-19
6.7442380831985e-19
7.5377838150489e-19
7.1291567395987e-19
5.9377757384123e-19
4.4374613193455e-19
3.0075610473596e-19
1.8621967898194e-19
1.0593627601465e-19
5.5635871552296e-20
2.7083544179279e-20
1.2259633246758e-20
5.1717451512055e-21
2.035757571614e-21
7.4800241927168e-22
2.5646240975639e-22
8.1984363103362e-23
2.4407745248102e-23
6.7579900297586e-24
1.7374631490302e-24
4.140339080781e-25
9.1257948688526e-26
1.8559642455225e-26
3.4731445551875e-27
5.9613786302359e-28
9.3511610047385e-29
1.335008618965e-29
1.7264068334544e-30
2.0111897960244e-31
2.0969969046084e-32
1.9417815508981e-33
1.5817304579878e-34
1.1200509399349e-35
6.7906579589043e-37
3.4548314776689e-38
1.4347106429176e-39
4.6708753705839e-41
1.1181191615323e-42
1.7500623849422e-44
1.3437359564004e-46
1.5514469607795e-53
6.8758606045514e-55
2.6777447661246e-56
9.0660111201049e-58
2.6336673780659e-59
6.4568726106891e-61
1.307605159067e-62
2.1247033898705e-64
2.6567600057684e-66
2.39443285785e-68
1.3813765700473e-70
3.8231526308723e-73
0
0
0
0
0
0
0
0
0
0
0
0
0
0
0
0
0
0
0
0
0
0
0
0
0
0
0
0
0
2.3658733149743e-26
-2.7801677759371e-24
-5.7497454580594e-23
-5.5039658198687e-22
-3.4095069249595e-21
-1.5521874917753e-20
-5.5439672012449e-20
-1.6137603714163e-19
-3.9228410576572e-19
-8.1008107512483e-19
-1.4383868753068e-18
-2.2121685621141e-18
-2.9544207563199e-18
-3.4226218976913e-18
-3.4274990999924e-18
-2.9478871741846e-18
-2.1422637118328e-18
-1.2464952554926e-18
-4.508897032847e-19
1.5298435596022e-19
5.5035204768977e-19
7.5971745564535e-19
8.0985489200417e-19
7.3863081128467e-19
5.9417448430572e-19
4.2673219665162e-19
2.7556206784501e-19
1.6093804674878e-19
8.5503191177663e-20
4.156039573284e-20
1.858112831262e-20
7.6757520777793e-21
2.9395294704837e-21
1.0457526321591e-21
3.4589307820709e-22
1.0635993071599e-22
3.0382016607007e-23
8.0527512574101e-24
1.977405631655e-24
4.4900714921843e-25
9.4064675495231e-26
1.8131430862748e-26
3.2053749087679e-27
5.1779593569631e-28
7.6108057026811e-29
1.0129525672885e-29
1.2139623356742e-30
1.3014725060924e-31
1.2384683267316e-32
1.0361425209697e-33
7.5315150732464e-35
4.6846135531135e-36
2.4438452510194e-37
1.0400955596231e-38
3.4686206211172e-40
8.5014672696773e-42
1.361800723026e-43
1.0696550333927e-45
9.6770934245125e-53
4.3747149354864e-54
1.7371598892059e-55
5.9948002693672e-57
1.7744079054872e-58
4.4309939832939e-60
9.1369325009052e-62
1.5112336051926e-63
1.9229404901173e-65
1.7630790683609e-67
1.034454701042e-69
2.9108001995852e-72
0
0
0
0
0
0
0
0
0
0
0
0
0
0
0
0
0
0
0
0
0
0
0
0
0
0
0
0
0
2.1883766122996e-37
1.2620389766683e-25
-7.8802887129023e-24
-1.6950442648178e-22
-1.6139297194344e-21
-9.8690264292485e-21
-4.4282025672269e-20
-1.5573319193232e-19
-4.4522794468832e-19
-1.0581483879334e-18
-2.1231235568772e-18
-3.6335522831658e-18
-5.3458103901016e-18
-6.8254748744945e-18
-7.6968190910969e-18
-7.8905127078733e-18
-7.4985700493438e-18
-6.3563198987948e-18
-4.0523371947853e-18
-6.882681423677e-19
2.6144100481009e-18
4.4800022921661e-18
4.4865877080106e-18
3.3383317206809e-18
2.0249287698204e-18
1.0887481259686e-18
5.6925941234275e-19
3.0708571656876e-19
1.6815506910859e-19
8.8542936810677e-20
4.3160507665354e-20
1.9232009759437e-20
7.8418834255475e-21
2.9401864839134e-21
1.0178548973771e-21
3.2610729867162e-22
9.6767654128577e-23
2.6587512809702e-23
6.7576165027851e-24
1.5865015710212e-24
3.4336771582462e-25
6.8336710518007e-26
1.2467484764709e-26
2.0774761607396e-27
3.1482721456769e-28
4.3177699940203e-29
5.3290195676326e-30
5.8799901545254e-31
5.7550186459645e-32
4.9490576009194e-33
3.6953303107439e-34
2.359657772492e-35
1.2629982418491e-36
5.5122037005389e-38
1.8843218318998e-39
4.7356495496627e-41
7.8388459733411e-43
7.3487942831122e-45
1.4238536812748e-46
1.6893097823406e-47
1.8532351128852e-48
1.8752763514559e-49
1.7454666383128e-50
1.4897336385124e-51
1.1617472246238e-52
8.2444106776557e-54
5.2994955060488e-55
3.0690810074868e-56
1.5913773620812e-57
7.3341055231936e-59
2.9781380958302e-60
1.0543701489626e-61
3.2126299644978e-63
8.2878766911788e-65
1.7721146492682e-66
3.0510430863064e-68
4.057249232559e-70
3.903310084942e-72
2.4126501729931e-74
7.1787557903948e-77
0
0
0
0
0
0
0
0
0
0
0
0
0
0
0
0
0
0
0
0
2.5567910484702e-36
4.5023693299626e-25
-1.5520101013081e-23
-3.5921888965368e-22
-3.4246680661942e-21
-2.0700927396162e-20
-9.1421555010387e-20
-3.1556241023235e-19
-8.822052070275e-19
-2.0402001514423e-18
-3.9587445668076e-18
-6.526613773446e-18
-9.3568770826692e-18
-1.1904832624247e-17
-1.4189983843476e-17
-1.6650044712174e-17
-1.8984594043085e-17
-1.9462238433124e-17
-1.8678719656507e-17
-1.0163220066875e-17
2.8087273935561e-18
9.3165186765561e-18
9.0197219479357e-18
5.1324207529891e-18
2.0485943361527e-18
7.5692855289558e-19
3.6183870177989e-19
2.1567222557118e-19
1.2872864606924e-19
7.0327945918972e-20
3.4499902822496e-20
1.5220134935611e-20
6.0890548997505e-21
2.2275973882008e-21
7.4934817642465e-22
2.3243874160744e-22
6.6548289974341e-23
1.7583624250522e-23
4.2838010104675e-24
9.6077129891325e-25
1.9793128597002e-25
3.7346691322674e-26
6.4310355446938e-27
1.0063846593181e-27
1.4242099848517e-28
1.8124089777574e-29
2.0603891531792e-30
2.0761344518577e-31
1.8367411913303e-32
1.4099020552868e-33
9.2492267810131e-35
5.0829382641069e-36
2.2765834208245e-37
7.9871770178233e-39
2.0683731111257e-40
3.6849770182809e-42
6.2019569959198e-44
4.4614137268464e-45
5.4891870169292e-46
6.2504107175607e-47
6.5720481365473e-48
6.3648352123807e-49
5.661477127097e-50
4.6103006789443e-51
3.4245197585759e-52
2.3106609234579e-53
1.4095296664204e-54
7.7310074775218e-56
3.7884486087576e-57
1.6463145942499e-58
6.2884936361143e-60
2.0889535893499e-61
5.9561406385403e-63
1.4337911895376e-64
2.8521797878847e-66
4.5542215619256e-68
5.5982442667477e-70
4.9615678345086e-72
2.8151330673221e-74
7.660764955598e-77
0
0
0
0
0
0
0
0
0
0
0
0
0
0
0
0
0
0
0
0
1.461336785244e-35
1.2027178517489e-24
-2.133321878867e-23
-5.733651210786e-22
-5.5413820112446e-21
-3.3232642639739e-20
-1.4454351483321e-19
-4.8962430851572e-19
-1.34762350476e-18
-3.0903100335846e-18
-5.9587100777343e-18
-9.6826478063193e-18
-1.3759531596523e-17
-1.6226974029521e-17
-1.5721324770384e-17
-1.0701283659387e-17
1.0309504392e-17
6.7893065506758e-17
1.3097162243625e-16
0
0.0013765035866861
8.8904578143811e-18
1.5457211192331e-17
5.7896713115572e-18
5.5342521547677e-19
2.6203836140733e-19
1.8723944833485e-19
1.3404883034606e-19
8.4197774885251e-20
4.6209054191384e-20
2.2346413064692e-20
9.6443019924825e-21
3.7626934040929e-21
1.3391667019036e-21
4.3702269505414e-22
1.3109071661311e-22
3.6174336204546e-23
9.1811102118575e-24
2.1409180497118e-24
4.5784406064157e-25
8.9558735402257e-26
1.5969716131153e-26
2.585197512492e-27
3.7808909286656e-28
4.9677253552214e-29
5.8255160672115e-30
6.0497957474651e-31
5.5114656449247e-32
4.3530884686345e-33
2.9362084768961e-34
1.6580611238077e-35
7.6286956313782e-37
2.7533418529582e-38
7.4356519214843e-40
1.5628940955033e-41
5.7164693164163e-43
6.3837651965484e-44
8.0999123747975e-45
9.5123429559022e-46
1.0317103431201e-46
1.0309273070125e-47
9.4644723101637e-49
7.9579671756576e-50
6.1066153580901e-51
4.2592321178253e-52
2.6876815169817e-53
1.526211352007e-54
7.7506533025904e-56
3.4944052705666e-57
1.3865745158274e-58
4.7916761029601e-60
1.4236105459851e-61
3.5774323448874e-63
7.4440010302884e-65
1.2461571574868e-66
1.6100277785858e-68
1.5039581470757e-70
9.0218656332667e-73
2.6046600849034e-75
0
0
0
0
0
0
0
0
0
0
0
0
0
0
0
0
0
0
0
0
0
5.4488129970272e-35
2.5526303852595e-24
-1.7407365227805e-23
-6.9185596286112e-22
-6.9588666889518e-21
-4.1766719412294e-20
-1.7972538954789e-19
-6.0052300227232e-19
-1.6603989819023e-18
-3.9209925398363e-18
-9.2458519367663e-18
-2.0879646233864e-17
-3.8175215280759e-17
-4.985270532264e-17
-4.0481869716747e-17
-7.804259364444e-19
3.4694469519536e-17
0.22393114215707
0.72141672719325
0.96621861832184
0.96796323297866
0.73905965851594
0.29254603463417
1.6509392069967e-19
1.132073619384e-19
1.0948699122687e-19
9.9885042784025e-20
7.4673235607726e-20
4.6854611588725e-20
2.5237629601266e-20
1.1904220518698e-20
5.0069323203334e-21
1.9023283024888e-21
6.5799856283505e-22
2.0807936211312e-22
6.0281516184511e-23
1.6009233352948e-23
3.8959608405498e-24
8.6763015185673e-25
1.7642152046597e-25
3.265165208425e-26
5.4787336008853e-27
8.2951295329638e-28
1.127009358433e-28
1.365120213156e-29
1.4628354716124e-30
1.3737893527078e-31
1.1175365380929e-32
7.7574669174806e-34
4.5055869331037e-35
2.1325392861578e-36
7.9516335941369e-38
2.2922314148809e-39
6.4319598486505e-41
4.3770726961374e-42
5.7052831619589e-43
7.4472685541273e-44
8.995542381197e-45
1.0033357668457e-45
1.0308817808733e-46
9.7304030849177e-48
8.4114063441849e-49
6.6358134282264e-50
4.7584252389696e-51
3.0872714593977e-52
1.8026785634659e-53
9.4146448902638e-55
4.3658524180751e-56
1.7821672551835e-57
6.3371026073571e-59
1.9377062157543e-60
5.0125761251306e-62
1.0739618618895e-63
1.8515931869706e-65
2.4642712096243e-67
2.3716957349122e-69
1.4661221716645e-71
4.3628056422132e-74
0
0
0
0
0
0
0
0
0
0
0
0
0
0
0
0
0
0
0
0
0
0
1.4912810497153e-34
4.4580170531936e-24
3.2304006732145e-24
-5.8803731622211e-22
-6.616288061698e-21
-4.061916834138e-20
-1.751354649003e-19
-5.8576008891852e-19
-1.6822069238619e-18
-4.2619421104052e-18
-1.352632212213e-17
-3.8265575813875e-17
-6.6244621584719e-17
-6.1490934472861e-17
-2.3934715546593e-17
3.1225022567583e-17
0.4015625396351
0.99497870895334
0.99999999999977
0.99999999999962
0.9999999999996
0.99999999999969
0.99905789378392
0.50097620572056
3.3192279063459e-20
4.5607850600207e-20
4.5791393395712e-20
3.5089481356815e-20
2.179108532105e-20
1.1481701170837e-20
5.2900353066887e-21
2.1719999104336e-21
8.0393164276206e-22
2.7007785639233e-22
8.2659613172682e-23
2.3090087871741e-23
5.8896907734923e-24
1.3708829139156e-24
2.9066017247939e-25
5.5981680399171e-26
9.7584321696555e-27
1.5325515783278e-27
2.1567647385349e-28
2.7025036554905e-29
2.9921847336998e-30
2.9002082181309e-31
2.4325006175764e-32
1.7395191390697e-33
1.0403528078549e-34
5.0758318533224e-36
1.9693121120203e-37
6.2883267649715e-39
2.5744379885451e-40
2.5935489610645e-41
3.6300532853099e-42
4.8693155134622e-43
6.0419279491609e-44
6.9203590895291e-45
7.2995447724414e-46
7.0713973434301e-47
6.2722718281476e-48
5.0761796823613e-49
3.7334179405228e-50
2.4839383357928e-51
1.4870853281698e-52
7.9617334110559e-54
3.7844025797894e-55
1.5832231184579e-56
5.7688726280415e-58
1.807316029455e-59
4.7894815757234e-61
1.0510586141525e-62
1.8557326463547e-64
2.5287310731123e-66
2.4912827817272e-68
1.5761192879816e-70
4.7990862064346e-73
0
0
0
0
0
0
0
0
0
0
0
0
0
0
0
0
0
0
0
0
0
0
0
3.1957776761027e-34
6.5469468896759e-24
4.0618634103808e-23
-2.181483228624e-22
-4.1119469207236e-21
-2.7912134034078e-20
-1.2544495360786e-19
-4.3750299264606e-19
-1.3840827454763e-18
-3.9050383693141e-18
-1.5498152733213e-17
-4.6309070448129e-17
-7.0382548429664e-17
-6.577927630268e-17
1.5134939904352e-16
0.23805983569429
0.99745483842945
0.99999999999974
0.99999999999952
0.99999999999936
0.99999999999932
0.99999999999943
0.99999999999968
0.9982001980055
0.31755119695725
1.2421051703463e-20
1.6749802937723e-20
1.3697752771766e-20
8.5102925472143e-21
4.4185451313193e-21
1.9976698102115e-21
8.0180034436503e-22
2.8902893568663e-22
9.418749342145e-23
2.7848219126566e-23
7.4836877137429e-24
1.8283485781611e-24
4.0565798124374e-25
8.1552062094066e-26
1.4806202638442e-26
2.4173090081262e-27
3.5305274769367e-28
4.5841286278516e-29
5.2519976165921e-30
5.2608978819401e-31
4.5550561460766e-32
3.3597143436687e-33
2.0720236027218e-34
1.0451308389962e-35
4.2659554022918e-37
1.5826652858326e-38
9.5567958106924e-40
1.2075365619781e-40
1.7671312619685e-41
2.4347860688756e-42
3.1017662286115e-43
3.6460277908847e-44
3.9452494865983e-45
3.9193305331202e-46
3.5637722127239e-47
2.9556948152671e-48
2.2270673032474e-49
1.5175553094664e-50
9.3023887922802e-52
5.0980342880442e-53
2.4797791334459e-54
1.0613614200586e-55
3.9555049941206e-57
1.267117608167e-58
3.4325848534508e-60
7.6980799873799e-62
1.3885455414201e-63
1.9324010087792e-65
1.9436816545806e-67
1.2550491593509e-69
3.8992575427281e-72
0
0
0
0
0
0
0
0
0
0
0
0
0
0
0
0
0
0
0
0
0
0
0
0
5.5857307297838e-34
8.1901593941066e-24
8.5321509884176e-23
3.2981445043056e-22
-7.1641002519751e-23
-7.1680682270022e-21
-4.5960084445869e-20
-2.0646983676139e-19
-8.6249906107124e-19
-2.8871640963137e-18
-1.3083338701948e-17
-3.7909900081504e-17
-5.0158879668208e-17
-2.9102595935878e-17
1.6653345369377e-16
0.73380425446649
0.99999999999985
0.99999999999963
0.99999999999941
0.99999999999924
0.99999999999919
0.9999999999993
0.99999999999954
0.99999999999984
0.7939340018131
3.6468295967113e-21
5.549135510125e-21
4.6336269283547e-21
2.866904565059e-21
1.4706507929004e-21
6.5254593301446e-22
2.5582001950064e-22
8.9655892204557e-23
2.8275777198463e-23
8.0548615759001e-24
2.0759279180318e-24
4.8397911080251e-25
1.0191067824774e-25
1.9327503045429e-26
3.2885735057186e-27
4.9954897434927e-28
6.7339959419199e-29
7.9967215438403e-30
8.2906615383083e-31
7.4203930313389e-32
5.6527744597555e-33
3.6014100736899e-34
1.8857619060143e-35
8.2261376253484e-37
3.7210816091993e-38
3.1506265580219e-39
4.5448689565289e-40
6.887598396694e-41
9.7467218916413e-42
1.2746232573352e-42
1.5372969267805e-43
1.7060021588021e-44
1.737391053123e-45
1.6188221516517e-46
1.3752563009465e-47
1.0610376474882e-48
7.4004809012062e-50
4.6417020946255e-51
2.6019919095493e-52
1.2941722379043e-53
5.6620655986307e-55
2.1562669718039e-56
7.0560473603644e-58
1.9519199725171e-59
4.4685610410378e-61
8.2249653275117e-63
1.1676173509628e-64
1.1975626630077e-66
7.8822811120141e-69
2.4955324881109e-71
0
0
0
0
0
0
0
0
0
0
0
0
0
0
0
0
0
0
0
0
0
0
0
0
0
8.1899506057674e-34
8.779865304749e-24
1.2221795003052e-22
8.7167914759854e-22
4.1340349933075e-21
1.4502236331362e-20
3.5945667020298e-20
2.7916041486775e-20
-2.957734884214e-19
-1.5741542047522e-18
-8.0031270597528e-18
-2.1483479789521e-17
-2.6649675319447e-17
1.1331910550227e-19
-7.4940054162198e-16
0.9632219356564
0.99999999999981
0.99999999999962
0.99999999999942
0.99999999999928
0.99999999999924
0.99999999999934
0.99999999999955
0.99999999999981
0.96281110695206
1.0690624725157e-21
1.664122857707e-21
1.388231911256e-21
8.5224156544966e-22
4.3035076487823e-22
1.8695369502264e-22
7.1392213168491e-23
2.4250915854456e-23
7.3781518577444e-24
2.0178933909365e-24
4.9673809441091e-25
1.0999565819207e-25
2.1864293072244e-26
3.8882010565102e-27
6.1581135387705e-28
8.6366712538137e-29
1.0650516233244e-29
1.1447624342243e-30
1.0607849045669e-31
8.359480361181e-33
5.5143095543442e-34
3.0144645241389e-35
1.4344592097278e-36
8.1960770699175e-38
9.0400747646889e-39
1.4181677938746e-39
2.2173083301227e-40
3.2231170561534e-41
4.3272587121139e-42
5.3551414396484e-43
6.0947568340415e-44
6.3625444136813e-45
6.0742358500274e-46
5.2850240430925e-47
4.1743029797467e-48
2.9793966017734e-49
1.9115750865651e-50
1.0957218539339e-51
5.5706288081887e-53
2.4902562684025e-54
9.68653666599e-56
3.2364106611607e-57
9.1377219376682e-59
2.1342859859518e-60
4.0064568998712e-62
5.7982804581024e-64
6.0604067491166e-66
4.0635231398751e-68
1.3101765809575e-70
0
0
0
0
0
0
0
0
0
0
0
0
0
0
0
0
0
0
0
0
0
0
0
0
0
0
1.0282402707829e-33
8.0542309568474e-24
1.3847979851385e-22
1.2254085922053e-21
7.1279654543361e-21
3.0238976185798e-20
9.5405029528991e-20
1.9836005193015e-19
1.4660859070075e-19
-4.4083780938119e-19
-3.32448569356e-18
-8.1341124826979e-18
-8.0400197665674e-18
1.7507956584249e-17
0.0021374768077562
0.96043298619733
0.99999999999984
0.99999999999969
0.99999999999953
0.99999999999942
0.9999999999994
0.99999999999949
0.99999999999965
0.99999999999987
0.90789048869484
2.9308453224248e-22
4.5322209124653e-22
3.7438867625597e-22
2.2629999425888e-22
1.1198426577148e-22
4.743439121679e-23
1.757232861416e-23
5.7629881761358e-24
1.6846371491901e-24
4.4038111846234e-25
1.0302676558268e-25
2.1547049924545e-26
4.0178465169902e-27
6.6531376191292e-28
9.731334659248e-29
1.2488083998907e-29
1.3941950704964e-30
1.3398930253426e-31
1.0943367028675e-32
7.4957097679056e-34
4.3107138300691e-35
2.292532374932e-36
1.6774419618844e-37
2.2494019563027e-38
3.7440547129143e-39
6.0306423382834e-40
9.007360357023e-41
1.2418049993903e-41
1.577178507847e-42
1.8411936642037e-43
1.9705294861951e-44
1.9276989496241e-45
1.7178516586603e-46
1.3890487011229e-47
1.0145352324553e-48
6.6581207843867e-50
3.9021404515559e-51
2.0275583160664e-52
9.259903908279e-54
3.6783444279133e-55
1.2545771310656e-56
3.6145095316313e-58
8.6112899108668e-60
1.6481822226509e-61
2.4310714439443e-63
2.5887003252382e-65
1.7676785857485e-67
5.8025315041435e-70
0
0
0
0
0
0
0
0
0
0
0
0
0
0
0
0
0
0
0
0
0
0
0
0
0
0
0
1.1228031312038e-33
6.2450268023681e-24
1.3019556492353e-22
1.3031208940257e-21
8.2026738634116e-21
3.6639541687105e-20
1.2092292776081e-19
2.7645735276612e-19
3.8312200883256e-19
2.3692253502356e-19
-6.155757052085e-19
-1.6648987134218e-18
7.6794699498592e-19
-6.0963320438887e-19
4.1633363423443e-17
0.75253063700267
0.99999999999991
0.99999999999979
0.99999999999968
0.99999999999961
0.9999999999996
0.99999999999967
0.9999999999998
0.99999999999995
0.69686892765104
7.4392161752721e-23
1.1314731889901e-22
9.1654865449613e-23
5.4174524208375e-23
2.6112217977664e-23
1.0726526497673e-23
3.836921305092e-24
1.2093939651613e-24
3.3802550033669e-25
8.4007682074808e-26
1.8568600223726e-26
3.6441665527813e-27
6.3290500689116e-28
9.680789392058e-29
1.2958687103215e-29
1.5058719724641e-30
1.5039487098654e-31
1.2758627214063e-32
9.1078052140436e-34
5.5653713952884e-35
3.3931539090244e-36
3.1543187390679e-37
4.8745384866283e-38
8.4998492815449e-39
1.4097973711088e-39
2.1644081551423e-40
3.0652206841514e-41
3.996592458701e-42
4.7869337899746e-43
5.2535251523524e-44
5.2673145478193e-45
4.8083930780227e-46
3.9809498900784e-47
2.9757014225722e-48
1.9977041084687e-49
1.1971515490556e-50
6.3576985437956e-52
2.966402746789e-53
1.2033498286459e-54
4.1896011700808e-56
1.2316311431717e-57
2.992782962993e-59
5.8399243764333e-61
8.7783844266415e-63
9.5222065190945e-65
6.6211659623266e-67
2.2125287126103e-69
0
0
0
0
0
0
0
0
0
0
0
0
0
0
0
0
0
0
0
0
0
0
0
0
0
0
0
0
1.0795256027042e-33
3.9479475222285e-24
1.033245033687e-22
1.1380566026446e-21
7.5187283232433e-21
3.4502650062445e-20
1.1596240245038e-19
2.7354589962228e-19
4.3306096754823e-19
4.7599254002312e-19
3.4707006312351e-19
1.7714587140941e-19
2.477412259612e-18
-9.4118267714791e-18
-1.1376088549674e-17
0.27941052538126
0.99785695121012
0.99999999999989
0.99999999999982
0.99999999999978
0.99999999999978
0.99999999999984
0.99999999999993
0.99992512536411
0.28774203363217
1.9348041481207e-23
2.7510504597881e-23
2.115232887757e-23
1.2069941420809e-23
5.6273372044595e-24
2.2274682373033e-24
7.6397663774646e-25
2.2959256161731e-25
6.0819703598732e-26
1.4236954483032e-26
2.9446858919628e-27
5.3698069598381e-28
8.5983738968027e-29
1.2019492155431e-29
1.4556622294e-30
1.5130472607501e-31
1.3361140278107e-32
9.9844729667759e-34
6.5630736800283e-35
4.6914908156761e-36
5.4064679997732e-37
9.268227003771e-38
1.6815318444579e-38
2.8718272657303e-39
4.5338684943386e-40
6.5981948295639e-41
8.8350120111675e-42
1.0860845578254e-42
1.222627925579e-43
1.2566957330663e-44
1.1754623686959e-45
9.9665057972005e-47
7.625712887421e-48
5.2378292192258e-49
3.2099499538444e-50
1.7425393251538e-51
8.3071980973268e-53
3.4416694318783e-54
1.223250917706e-55
3.6694665130486e-57
9.0947559886001e-59
1.8093855132202e-60
2.7718038643952e-62
3.0628833975682e-64
2.1687344638254e-66
7.3773952708415e-69
0
0
0
0
0
0
0
0
0
0
0
0
0
0
0
0
0
0
0
0
0
0
0
0
0
0
0
0
0
9.229220257651e-34
1.816050245264e-24
6.9168300347982e-23
8.415976327997e-22
5.8055632323819e-21
2.7266708859833e-20
9.2811813862818e-20
2.2249633418216e-19
3.7019860207754e-19
4.5326489714413e-19
4.4219001621139e-19
3.9154176761348e-19
2.1502561455035e-18
-5.9737322498741e-18
-7.2836599472545e-18
-1.5092094240998e-16
0.4825918572
0.99969700464075
0.99999999999994
0.99999999999991
0.99999999999992
0.99999999999995
1
0.56860037226954
0.0015294170165156
1.7834043653249e-10
3.5668087306508e-11
8.6951362350891e-24
4.3337486327238e-24
1.7780503435725e-24
6.2128546260553e-25
1.8847426174684e-25
5.0202529856707e-26
1.1814951344438e-26
2.4637217861387e-27
4.5507777726519e-28
7.4214175248473e-29
1.0620779480751e-29
1.3226007356265e-30
1.4188520351323e-31
1.2991074780415e-32
1.0177650810005e-33
7.2747618666368e-35
6.1494010057018e-36
8.4405391349801e-37
1.5601241419794e-37
2.9321807673178e-38
5.1565830544555e-39
8.3745420707082e-40
1.2528776452825e-40
1.7234306967568e-41
2.1751014288198e-42
2.5123417543642e-43
2.6480993432336e-44
2.5386002284815e-45
2.2048597225244e-46
1.7272296000496e-47
1.2140559656227e-48
7.6101914922156e-50
4.2236422580385e-51
2.0576320596417e-52
8.7075412133002e-54
3.1598185140373e-55
9.6733804640222e-57
2.4457086587634e-58
4.9612796097786e-60
7.7461654516228e-62
8.7203682864126e-64
6.2881508663835e-66
2.1776768487505e-68
0
0
0
0
0
0
0
0
0
0
0
0
0
0
0
0
0
0
0
0
0
0
0
0
0
0
0
0
0
0
7.073092857747e-34
2.8226342853249e-25
3.8195357524586e-23
5.32785335499e-22
3.8724950256297e-21
1.8702348255071e-20
6.4533565419864e-20
1.5672908318581e-19
2.6789226669303e-19
3.3814731403058e-19
3.1596797131161e-19
3.4996676556296e-19
1.6643325113037e-18
-1.1611860788424e-18
-3.1013666929223e-18
-1.9480283398931e-18
-8.825405684032e-17
0.2775892496979
0.75351549619861
0.96617076126362
0.95505653484588
0.75941753279377
0.34356908836845
0.0026682567729837
1.7834043653253e-10
5.3502130959792e-11
2.8362358295094e-23
1.2835200847619e-23
4.8035137689326e-24
1.5218022760904e-24
4.1494181897557e-25
9.8516228429662e-26
2.0539339597807e-26
3.7883357781621e-27
6.2251935990453e-28
9.1634798612817e-29
1.2099776846307e-29
1.4266745228735e-30
1.4872200306318e-31
1.3562879367722e-32
1.0878721916386e-33
8.3195158111489e-35
7.9689020738348e-36
1.2138641556307e-36
2.3505990252422e-37
4.5551225337725e-38
8.2461892075433e-39
1.3779251610481e-39
2.1196829126947e-40
2.9961794977563e-41
3.8832082771292e-42
4.6032485822433e-43
4.9767151591027e-44
4.8908427639093e-45
4.3522925774491e-46
3.491480106132e-47
2.5118985029716e-48
1.610832182489e-49
9.1416737908463e-51
4.5518401112377e-52
1.967867051146e-53
7.2919922444608e-55
2.2785105803797e-56
5.8772288975654e-58
1.2158069567399e-59
1.9349572203132e-61
2.2194733216302e-63
1.630044608863e-65
5.7476704502318e-68
0
0
0
0
0
0
0
0
0
0
0
0
0
0
0
0
0
0
0
0
0
0
0
0
0
0
0
0
0
0
0
4.8920086629308e-34
-5.4317400189412e-25
1.6137151656294e-23
2.8809917381313e-22
2.2611044427361e-21
1.1349098744215e-20
3.9850313383758e-20
9.8144454685927e-20
1.7176240741407e-19
2.222095130073e-19
2.0710751637539e-19
3.0243133733983e-19
1.1631524841831e-18
8.4880215790475e-19
-4.6686718367306e-20
-1.7586073448882e-19
1.7123010162712e-19
1.9061529387745e-19
1.0878336602502e-19
4.2903199926068e-20
0.0041362497082338
3.0629102134893e-21
7.5997848303043e-22
4.458510913343e-11
2.6751065480053e-11
9.7410586806165e-23
4.3425613193393e-23
1.6122685430644e-23
5.0511610870448e-24
1.3515840603985e-24
3.1147812698121e-25
6.2122695965742e-26
1.0758550587333e-26
1.6241433479131e-27
2.1499362224767e-28
2.5156688775114e-29
2.6242786787536e-30
2.4558443222831e-31
2.068928847335e-32
1.5884896020968e-33
1.1952037223726e-34
1.120186630005e-35
1.6587278992363e-36
3.2177895442259e-37
6.3746008512949e-38
1.1863908783355e-38
2.0393415424034e-39
3.2256903951722e-40
4.6853744499532e-41
6.2363773516406e-42
7.5878700133149e-43
8.4152748760419e-44
8.4789680525609e-45
7.7318203764694e-46
6.3526442628366e-47
4.6785466823215e-48
3.0698051126552e-49
1.7816813021518e-50
9.0684086448141e-52
4.0057033673453e-53
1.5158977398066e-54
4.8352528071082e-56
1.2725961893781e-57