# vtk DataFile Version 2.0
track0
ASCII
DATASET POLYDATA
POINTS 10927 float
-0.0205 0.001 1e-05
-0.02052 0.00100026 1e-05
-0.02054 0.00100046 1e-05
-0.02056 0.00100062 1e-05
-0.02058 0.00100072 1e-05
-0.0206 0.00100077 1e-05
-0.0205 0.00367778 1e-05
-0.02052 0.0036779 1e-05
-0.02054 0.00367799 1e-05
-0.02056 0.00367806 1e-05
-0.02058 0.00367811 1e-05
-0.0206 0.00367814 1e-05
-0.0205 0.00635556 1e-05
-0.02052 0.00635559 1e-05
-0.02054 0.00635561 1e-05
-0.02056 0.00635563 1e-05
-0.02058 0.00635565 1e-05
-0.0206 0.00635565 1e-05
-0.0205 0.00903333 1e-05
-0.02052 0.00903335 1e-05
-0.02054 0.00903336 1e-05
-0.02056 0.00903337 1e-05
-0.02058 0.00903337 1e-05
-0.0206 0.00903337 1e-05
-0.0205 0.0117111 1e-05
-0.02052 0.0117111 1e-05
-0.02054 0.0117111 1e-05
-0.02056 0.0117111 1e-05
-0.02058 0.0117111 1e-05
-0.0206 0.0117111 1e-05
-0.0205 0.0143889 1e-05
-0.02052 0.0143889 1e-05
-0.02054 0.0143889 1e-05
-0.02056 0.0143889 1e-05
-0.02058 0.0143889 1e-05
-0.0206 0.0143889 1e-05
-0.0205 0.0170667 1e-05
-0.02052 0.0170666 1e-05
-0.02054 0.0170666 1e-05
-0.02056 0.0170666 1e-05
-0.02058 0.0170666 1e-05
-0.0206 0.0170666 1e-05
-0.0205 0.0197444 1e-05
-0.02052 0.0197444 1e-05
-0.02054 0.0197443 1e-05
-0.02056 0.0197443 1e-05
-0.02058 0.0197443 1e-05
-0.0206 0.0197443 1e-05
-0.0205 0.0224222 1e-05
-0.02052 0.0224221 1e-05
-0.02054 0.022422 1e-05
-0.02056 0.0224219 1e-05
-0.02058 0.0224218 1e-05
-0.0206 0.0224218 1e-05
-0.0205 0.0251 1e-05
-0.02052 0.0250982 1e-05
-0.02054 0.0250967 1e-05
-0.0205601 0.0250956 1e-05
-0.0205802 0.0250949 1e-05
-0.0206 0.0250945 1e-05
-0.0205 0.001 1e-05
-0.0202034 0.000996197 1e-05
-0.0199071 0.00098489 1e-05
-0.0196111 0.0009662 1e-05
-0.0193156 0.000939965 1e-05
-0.0190172 0.000906935 1e-05
-0.0187132 0.00087312 1e-05
-0.0184093 0.000839451 1e-05
-0.0181054 0.000805928 1e-05
-0.0178013 0.000773785 1e-05
-0.0174976 0.000743974 1e-05
-0.0173142 0.000727293 1e-05
-0.0171308 0.000711451 1e-05
-0.0169473 0.000696316 1e-05
-0.0167638 0.000681816 1e-05
-0.0164828 0.000660565 1e-05
-0.016394 0.00065429 1e-05
-0.0163051 0.000648155 1e-05
-0.0162163 0.000642159 1e-05
-0.0161274 0.000636298 1e-05
-0.0160387 0.000630569 1e-05
-0.0157586 0.000612699 1e-05
-0.0154784 0.00059607 1e-05
-0.0151981 0.000580482 1e-05
-0.0149178 0.000565885 1e-05
-0.0146381 0.000552094 1e-05
-0.0143692 0.000539215 1e-05
-0.0141002 0.000527259 1e-05
-0.0138312 0.00051616 1e-05
-0.0135621 0.000505682 1e-05
-0.0132934 0.000495487 1e-05
-0.0130353 0.000485947 1e-05
-0.0127771 0.000477111 1e-05
-0.0125188 0.000468937 1e-05
-0.0122606 0.000461136 1e-05
-0.0120025 0.000453506 1e-05
-0.0117547 0.000446335 1e-05
-0.0115068 0.000439697 1e-05
-0.0112589 0.000433506 1e-05
-0.011011 0.000427545 1e-05
-0.0107632 0.000421727 1e-05
-0.0105252 0.00041623 1e-05
-0.0102873 0.00041114 1e-05
-0.0100493 0.000406308 1e-05
-0.00981129 0.000401642 1e-05
-0.00957337 0.000397116 1e-05
-0.00934491 0.000392815 1e-05
-0.00911645 0.000388833 1e-05
-0.00888798 0.000384989 1e-05
-0.00865951 0.000381268 1e-05
-0.00843108 0.000377669 1e-05
-0.00821175 0.00037424 1e-05
-0.00799242 0.000371034 1e-05
-0.00777308 0.000367921 1e-05
-0.00755375 0.0003649 1e-05
-0.00733443 0.000361969 1e-05
-0.00712387 0.000359182 1e-05
-0.0069133 0.000356547 1e-05
-0.00670273 0.00035398 1e-05
-0.00649216 0.000351481 1e-05
-0.0062816 0.000349049 1e-05
-0.00607944 0.000346741 1e-05
-0.00587729 0.000344533 1e-05
-0.00567513 0.000342374 1e-05
-0.00547298 0.000340264 1e-05
-0.00527083 0.000338203 1e-05
-0.00507675 0.000336249 1e-05
-0.00488267 0.000334354 1e-05
-0.0046886 0.000332493 1e-05
-0.00449452 0.000330663 1e-05
-0.00430044 0.000328865 1e-05
-0.00411412 0.000327158 1e-05
-0.0039278 0.000325476 1e-05
-0.00374147 0.000323808 1e-05
-0.00355515 0.000322152 1e-05
-0.00336883 0.000320509 1e-05
-0.00333075 0.000320175 1e-05
-0.00329268 0.000319841 1e-05
-0.00325461 0.000319506 1e-05
-0.00321653 0.00031917 1e-05
-0.00317926 0.000318841 1e-05
-0.00303829 0.000317591 1e-05
-0.00289733 0.000316329 1e-05
-0.00275636 0.000315057 1e-05
-0.0026154 0.000313774 1e-05
-0.00247443 0.000312479 1e-05
-0.0023027 0.000310871 1e-05
-0.00213097 0.000309205 1e-05
-0.00195924 0.000307458 1e-05
-0.00178751 0.00030563 1e-05
-0.00161577 0.000303723 1e-05
-0.0014509 0.000301769 1e-05
-0.00128603 0.000299612 1e-05
-0.00112117 0.000297142 1e-05
-0.000956311 0.000294364 1e-05
-0.000791418 0.00029128 1e-05
-0.000633135 0.000287877 1e-05
-0.000474867 0.000283815 1e-05
-0.000316625 0.000278811 1e-05
-0.000158416 0.00027288 1e-05
0 0.000266022 1e-05
0.000105677 0.000260629 1e-05
0.000211282 0.000253964 1e-05
0.00031685 0.000246736 1e-05
0.000422377 0.000238934 1e-05
0.000528387 0.000230818 1e-05
0.000634886 0.00022343 1e-05
0.000741326 0.000215233 1e-05
0.000847727 0.000206547 1e-05
0.000954124 0.0001978 1e-05
0.00106088 0.000189644 1e-05
0.00116821 0.000182263 1e-05
0.00127551 0.000174554 1e-05
0.00138279 0.000166527 1e-05
0.00149008 0.000158631 1e-05
0.00159752 0.000151295 1e-05
0.00170568 0.000144503 1e-05
0.00181383 0.000137587 1e-05
0.00192198 0.000130549 1e-05
0.00203013 0.000123657 1e-05
0.00213833 0.000117194 1e-05
0.00224733 0.000111126 1e-05
0.00235633 0.000105026 1e-05
0.00246533 9.89721e-05 1e-05
0.00257434 9.30969e-05 1e-05
0.00268334 8.74766e-05 1e-05
0.00279319 8.2161e-05 1e-05
0.00290304 7.68542e-05 1e-05
0.00301289 7.16749e-05 1e-05
0.00312276 6.66563e-05 1e-05
0.00323259 6.17998e-05 1e-05
0.00334329 5.71874e-05 1e-05
0.003454 5.26149e-05 1e-05
0.00356471 4.81833e-05 1e-05
0.00367542 4.38912e-05 1e-05
0.00378611 3.97388e-05 1e-05
0.00389767 3.57527e-05 1e-05
0.00400924 3.18376e-05 1e-05
0.00412081 2.80441e-05 1e-05
0.00423239 2.43712e-05 1e-05
0.00434393 2.08185e-05 1e-05
0.00445636 1.73824e-05 1e-05
0.0045688 1.40299e-05 1e-05
0.00468123 1.07816e-05 1e-05
0.00479367 7.63633e-06 1e-05
0.00490609 4.5939e-06 1e-05
0.00494126 3.67512e-06 1e-05
0.00497643 2.7637e-06 1e-05
0.0050116 1.86079e-06 1e-05
0.00504677 9.66384e-07 1e-05
0.00508513 0 1e-05
0.00516263 -1.93188e-06 1e-05
0.00524013 -3.82315e-06 1e-05
0.00531763 -5.6741e-06 1e-05
0.00539513 -7.48499e-06 1e-05
0.00547262 -9.25589e-06 1e-05
0.00558681 -1.17968e-05 1e-05
0.005701 -1.42765e-05 1e-05
0.00581519 -1.6684e-05 1e-05
0.00592938 -1.90199e-05 1e-05
0.00604356 -2.12847e-05 1e-05
0.00615863 -2.34768e-05 1e-05
0.00627371 -2.56322e-05 1e-05
0.00638878 -2.77286e-05 1e-05
0.00650386 -2.97667e-05 1e-05
0.00661893 -3.17468e-05 1e-05
0.0067349 -3.36598e-05 1e-05
0.00685087 -3.55544e-05 1e-05
0.00696684 -3.74021e-05 1e-05
0.00708281 -3.92033e-05 1e-05
0.00719878 -4.09584e-05 1e-05
0.00731565 -4.26537e-05 1e-05
0.00743252 -4.43451e-05 1e-05
0.00754939 -4.60006e-05 1e-05
0.00766626 -4.76204e-05 1e-05
0.00778313 -4.92049e-05 1e-05
0.00790091 -5.0738e-05 1e-05
0.00801869 -5.22789e-05 1e-05
0.00813647 -5.37939e-05 1e-05
0.00825425 -5.52833e-05 1e-05
0.00837203 -5.67472e-05 1e-05
0.00849073 -5.81684e-05 1e-05
0.00860942 -5.96074e-05 1e-05
0.00872812 -6.10297e-05 1e-05
0.00884682 -6.24355e-05 1e-05
0.00896551 -6.38249e-05 1e-05
0.00908513 -6.51804e-05 1e-05
0.00920475 -6.65622e-05 1e-05
0.00932437 -6.79358e-05 1e-05
0.00944398 -6.93014e-05 1e-05
0.0095636 -7.06589e-05 1e-05
0.00968415 -7.19911e-05 1e-05
0.0098047 -7.33573e-05 1e-05
0.00992525 -7.47233e-05 1e-05
0.0100458 -7.60891e-05 1e-05
0.0101663 -7.74546e-05 1e-05
0.0102878 -7.88034e-05 1e-05
0.0104093 -8.01929e-05 1e-05
0.0105308 -8.159e-05 1e-05
0.0106523 -8.29942e-05 1e-05
0.0107738 -8.44041e-05 1e-05
0.0108962 -8.58073e-05 1e-05
0.0110186 -8.72551e-05 1e-05
0.0111411 -8.87202e-05 1e-05
0.0112635 -9.01996e-05 1e-05
0.0113859 -9.16898e-05 1e-05
0.0115093 -9.31834e-05 1e-05
0.0116327 -9.47258e-05 1e-05
0.0117561 -9.62945e-05 1e-05
0.0118794 -9.78841e-05 1e-05
0.0120028 -9.94899e-05 1e-05
0.0121272 -0.000101109 1e-05
0.0122515 -0.000102781 1e-05
0.0123759 -0.000104487 1e-05
0.0125002 -0.000106221 1e-05
0.0126245 -0.000107977 1e-05
0.0127498 -0.000109755 1e-05
0.0128752 -0.00011159 1e-05
0.0130005 -0.000113468 1e-05
0.0131258 -0.00011538 1e-05
0.0132511 -0.000117319 1e-05
0.0133774 -0.00011929 1e-05
0.0135036 -0.000121322 1e-05
0.0136299 -0.000123405 1e-05
0.0137562 -0.000125528 1e-05
0.0138825 -0.000127682 1e-05
0.0140098 -0.000129879 1e-05
0.014137 -0.000132141 1e-05
0.0142643 -0.000134461 1e-05
0.0143915 -0.000136828 1e-05
0.0145188 -0.000139232 1e-05
0.0146471 -0.000141686 1e-05
0.0147753 -0.000144211 1e-05
0.0149036 -0.000146803 1e-05
0.0150318 -0.000149446 1e-05
0.0151601 -0.000152132 1e-05
0.0152893 -0.000154878 1e-05
0.0154186 -0.000157699 1e-05
0.0155478 -0.000160594 1e-05
0.0156771 -0.000163547 1e-05
0.0158063 -0.000166547 1e-05
0.0159366 -0.000169618 1e-05
0.0160668 -0.000172769 1e-05
0.0161971 -0.000175999 1e-05
0.0163273 -0.000179294 1e-05
0.0164576 -0.000182644 1e-05
0.0165889 -0.000186074 1e-05
0.0167201 -0.000189588 1e-05
0.0168514 -0.000193187 1e-05
0.0169827 -0.000196858 1e-05
0.0171139 -0.000200591 1e-05
0.0172462 -0.000204414 1e-05
0.0173785 -0.000208328 1e-05
0.0175108 -0.00021233 1e-05
0.0176431 -0.000216412 1e-05
0.0177754 -0.000220564 1e-05
0.0179087 -0.000224816 1e-05
0.018042 -0.000229164 1e-05
0.0181753 -0.000233607 1e-05
0.0183086 -0.000238136 1e-05
0.018442 -0.000242743 1e-05
0.0185763 -0.000247461 1e-05
0.0187107 -0.00025228 1e-05
0.018845 -0.000257199 1e-05
0.0189794 -0.000262212 1e-05
0.0191137 -0.000267311 1e-05
0.0192491 -0.000272533 1e-05
0.0193845 -0.000277861 1e-05
0.0195199 -0.000283294 1e-05
0.0196553 -0.000288828 1e-05
0.0197907 -0.000294458 1e-05
0.0199272 -0.000300223 1e-05
0.0200636 -0.0003061 1e-05
0.0202001 -0.000312087 1e-05
0.0203365 -0.000318181 1e-05
0.020473 -0.000324383 1e-05
0.0206105 -0.000330732 1e-05
0.020748 -0.000337199 1e-05
0.0208855 -0.000343782 1e-05
0.021023 -0.000350479 1e-05
0.0211606 -0.000357293 1e-05
0.0212991 -0.000364267 1e-05
0.0214377 -0.000371367 1e-05
0.0215763 -0.000378588 1e-05
0.0217148 -0.000385932 1e-05
0.0218535 -0.0003934 1e-05
0.0219628 -0.000399383 1e-05
0.0220721 -0.000405447 1e-05
0.0221813 -0.00041159 1e-05
[...]
POINT_DATA 10927
 FIELD attributes 1
U 3 10927 float
0.308535 	-0.00395644 	0 0.307637 	-0.00316515 	0 0.306723 	-0.00237384 	0 0.305795 	-0.00158251 	0 0.304851 	-0.000791169 	0 0.303893 	0 	0
0.989491 	-0.0058948 	0 0.989718 	-0.00471584 	0 0.98994 	-0.00353687 	0 0.990156 	-0.0023579 	0 0.990367 	-0.00117892 	0 0.990573 	0 	0
1.50209 	-0.0024392 	0 1.50222 	-0.00195124 	0 1.50236 	-0.00146328 	0 1.5025 	-0.000975328 	0 1.50263 	-0.000487375 	0 1.50276 	0 	0
1.8259 	-0.00124984 	0 1.8258 	-0.000999875 	0 1.82571 	-0.000749906 	0 1.82561 	-0.000499938 	0 1.82551 	-0.000249969 	0 1.82542 	0 	0
1.97015 	-0.00016166 	0 1.9697 	-0.000129328 	0 1.96924 	-9.69959e-05 	0 1.96878 	-6.46639e-05 	0 1.96833 	-3.2332e-05 	0 1.96787 	0 	0
1.94115 	0.000388224 	0 1.94051 	0.00031058 	0 1.93988 	0.000232935 	0 1.93925 	0.00015529 	0 1.93862 	7.76449e-05 	0 1.93799 	0 	0
1.75628 	0.00180692 	0 1.75611 	0.00144554 	0 1.75594 	0.00108415 	0 1.75578 	0.000722769 	0 1.75561 	0.000361384 	0 1.75544 	0 	0
1.38193 	0.00385907 	0 1.382 	0.00308725 	0 1.38207 	0.00231544 	0 1.38214 	0.00154362 	0 1.38221 	0.000771808 	0 1.38227 	0 	0
0.827865 	0.00618257 	0 0.828063 	0.00494606 	0 0.828254 	0.00370953 	0 0.828438 	0.002473 	0 0.828615 	0.00123645 	0 0.828785 	0 	0
0.109266 	0.00998295 	0 0.10925 	0.00798636 	0 0.109154 	0.00598679 	0 0.108977 	0.00398489 	0 0.108721 	0.00198133 	0 0.108387 	0 	0
0.308535 	-0.00395644 	0 0.317428 	-0.0121101 	0 0.324386 	-0.0204828 	0 0.329696 	-0.029278 	0 0.33297 	-0.0368487 	0 0.333191 	-0.0370716 	0 0.333064 	-0.0368953 	0 0.332974 	-0.036724 	0 0.336379 	-0.0355551 	0 0.342676 	-0.0336374 	0 0.349505 	-0.0317993 	0 0.354342 	-0.0306041 	0 0.358701 	-0.0295878 	0 0.362896 	-0.0286698 	0 0.367244 	-0.0277737 	0 0.374128 	-0.0264347 	0 0.37648 	-0.0260003 	0 0.378865 	-0.0255714 	0 0.381282 	-0.0251478 	0 0.383453 	-0.0247491 	0 0.383811 	-0.0244852 	0 0.392516 	-0.0232957 	0 0.39917 	-0.0222023 	0 0.406066 	-0.0211453 	0 0.410812 	-0.0202544 	0 0.41072 	-0.0196691 	0 0.421667 	-0.0187437 	0 0.43261 	-0.0178497 	0 0.438312 	-0.0170696 	0 0.437179 	-0.0165882 	0 0.436137 	-0.0161147 	0 0.447569 	-0.0153161 	0 0.459234 	-0.0145367 	0 0.463879 	-0.0140132 	0 0.461743 	-0.0136533 	0 0.459664 	-0.0132976 	0 0.471357 	-0.0126228 	0 0.48139 	-0.0120218 	0 0.484752 	-0.0116569 	0 0.48393 	-0.0113624 	0 0.48082 	-0.011107 	0 0.492679 	-0.0105372 	0 0.499185 	-0.0101367 	0 0.502218 	-0.00984576 	0 0.503685 	-0.00958228 	0 0.499608 	-0.00940438 	0 0.511601 	-0.00891862 	0 0.514994 	-0.00866423 	0 0.51772 	-0.00843122 	0 0.520506 	-0.00820033 	0 0.516248 	-0.00807279 	0 0.526593 	-0.00769594 	0 0.528995 	-0.0075077 	0 0.531444 	-0.00732093 	0 0.533939 	-0.0071356 	0 0.530988 	-0.00702746 	0 0.539237 	-0.00674903 	0 0.54141 	-0.00659974 	0 0.543619 	-0.00645146 	0 0.545863 	-0.00630417 	0 0.544111 	-0.0062125 	0 0.55051 	-0.00601371 	0 0.552494 	-0.00589985 	0 0.554503 	-0.00578666 	0 0.556539 	-0.00567415 	0 0.555906 	-0.00559915 	0 0.560669 	-0.00547185 	0 0.562507 	-0.0053961 	0 0.564362 	-0.00532077 	0 0.566236 	-0.00524585 	0 0.566678 	-0.00519233 	0 0.569993 	-0.00514333 	0 0.571751 	-0.00511993 	0 0.573515 	-0.00509669 	0 0.575287 	-0.00507361 	0 0.576817 	-0.00505483 	0 0.577462 	-0.00506721 	0 0.577839 	-0.00508396 	0 0.578216 	-0.0051007 	0 0.578592 	-0.00511743 	0 0.57896 	-0.0051338 	0 0.580299 	-0.00519185 	0 0.581631 	-0.00524973 	0 0.582957 	-0.00530744 	0 0.584276 	-0.00536497 	0 0.577723 	-0.00541041 	0 0.587468 	-0.00569922 	0 0.589407 	-0.00599655 	0 0.591295 	-0.00629235 	0 0.593132 	-0.00658664 	0 0.575745 	-0.00682437 	0 0.59724 	-0.00781297 	0 0.599482 	-0.00898124 	0 0.601526 	-0.0101386 	0 0.603375 	-0.0112851 	0 0.568608 	-0.0122244 	0 0.607745 	-0.0155976 	3.73328e-22 0.609579 	-0.0192743 	1.05274e-21 0.610835 	-0.0228993 	1.72132e-21 0.611522 	-0.0264731 	2.37919e-21 0.537352 	-0.0274243 	3.02746e-21 0.618813 	-0.0390564 	6.02539e-21 0.617302 	-0.0422666 	6.54912e-21 0.615531 	-0.0455083 	7.0932e-21 0.607683 	-0.0465191 	6.79305e-21 0.581088 	-0.0403153 	3.73604e-21 0.595419 	-0.0458533 	2.52233e-21 0.601836 	-0.0491303 	1.46149e-21 0.596987 	-0.0490774 	6.38825e-22 0.582718 	-0.0445198 	7.35201e-22 0.56669 	-0.03897 	1.04099e-21 0.574096 	-0.0412417 	2.01127e-21 0.581295 	-0.043497 	2.97946e-21 0.579664 	-0.042662 	2.94981e-21 0.571415 	-0.039016 	2.0842e-21 0.563442 	-0.0353828 	1.2149e-21 0.568369 	-0.0363443 	1.84115e-21 0.573233 	-0.037302 	2.46791e-21 0.575645 	-0.0366865 	2.00716e-21 0.571107 	-0.0341152 	9.61543e-22 0.566742 	-0.0315511 	-8.31986e-23 0.57014 	-0.0319046 	-1.05514e-21 0.572966 	-0.0318213 	-1.64793e-21 0.574839 	-0.0309808 	-1.58101e-21 0.574733 	-0.0296368 	-1.13582e-21 0.572278 	-0.0276923 	-2.38471e-22 0.574968 	-0.0277761 	-2.78941e-22 0.57698 	-0.0272028 	-3.36905e-22 0.578842 	-0.0264415 	-3.99482e-22 0.58074 	-0.0256793 	-4.63384e-22 0.579544 	-0.0241464 	-7.6562e-22 0.581917 	-0.024035 	-1.13016e-21 0.58381 	-0.023369 	-1.25257e-21 0.585751 	-0.0227073 	-1.37553e-21 0.58774 	-0.0220498 	-1.49902e-21 0.588246 	-0.0210177 	-1.31509e-21 0.590409 	-0.0207186 	-1.42104e-21 0.592375 	-0.0201409 	-1.22758e-21 0.594377 	-0.0195665 	-1.03456e-21 0.596417 	-0.0189956 	-8.41955e-22 0.597871 	-0.0182719 	-5.00226e-22 0.599942 	-0.0178886 	-1.99877e-22 0.601956 	-0.0173906 	-1.80859e-23 0.603999 	-0.0168954 	1.64682e-22 0.606071 	-0.0164028 	3.48416e-22 0.608061 	-0.0158853 	4.92943e-22 0.608703 	-0.0157746 	5.04919e-22 0.609333 	-0.0156432 	4.91729e-22 0.609965 	-0.0155121 	4.7859e-22 0.6106 	-0.0153811 	4.65502e-22 0.611295 	-0.0152385 	4.51283e-22 0.61275 	-0.0149535 	4.30006e-22 0.614215 	-0.0146694 	4.08822e-22 0.61569 	-0.0143863 	3.8773e-22 0.617174 	-0.0141041 	3.66729e-22 0.618605 	-0.0137655 	3.71305e-22 0.620907 	-0.0134836 	3.40166e-22 0.623021 	-0.0131351 	3.30949e-22 0.625152 	-0.0127881 	3.21868e-22 0.627298 	-0.0124428 	3.12923e-22 0.629322 	-0.0119884 	3.84184e-22 0.631821 	-0.011834 	3.01696e-22 0.633922 	-0.0115486 	2.97952e-22 0.636035 	-0.0112644 	2.94316e-22 0.63816 	-0.0109814 	2.90787e-22 0.640101 	-0.010559 	3.58942e-22 0.642715 	-0.0105001 	2.01577e-22 0.644794 	-0.0102731 	5.35986e-23 0.646881 	-0.010047 	-9.43873e-23 0.648978 	-0.00982186 	-2.42381e-22 0.650841 	-0.00944127 	-3.99361e-22 0.653515 	-0.00945792 	-6.9769e-22 0.655563 	-0.00928584 	-7.84187e-22 0.657618 	-0.00911446 	-8.70496e-22 0.65968 	-0.00894377 	-9.56617e-22 0.661469 	-0.00861006 	-7.3448e-22 0.664165 	-0.0086894 	-9.84099e-22 0.666177 	-0.0085692 	-9.77279e-22 0.668193 	-0.00844948 	-9.7035e-22 0.670214 	-0.00833025 	-9.63312e-22 0.671931 	-0.00804546 	-6.06935e-22 0.674624 	-0.00817878 	-4.65579e-22 0.676593 	-0.00810759 	-3.19704e-22 0.678566 	-0.0080367 	-1.7386e-22 0.680541 	-0.00796611 	-2.80469e-23 0.682186 	-0.00773017 	-1.22809e-24 0.684859 	-0.00791138 	9.34296e-24 0.686782 	-0.00788669 	7.44228e-23 0.688707 	-0.00786215 	1.3951e-22 0.690633 	-0.00783775 	2.04603e-22 0.692206 	-0.00764983 	2.6961e-22 0.694848 	-0.00787501 	2.02694e-22 0.696721 	-0.0078949 	1.35572e-22 0.698595 	-0.00791479 	6.84513e-23 0.700469 	-0.00793469 	1.33046e-24 0.701968 	-0.00779374 	0 0.704563 	-0.00805812 	0 0.706393 	-0.00812352 	7.17596e-23 0.708213 	-0.00818638 	1.44387e-22 0.710008 	-0.00823978 	2.16765e-22 0.711455 	-0.00815396 	2.85538e-22 0.713948 	-0.0084429 	8.08564e-22 0.715785 	-0.00856586 	9.33147e-22 0.717547 	-0.00867046 	1.01416e-21 0.719255 	-0.00875479 	1.01524e-21 0.720654 	-0.00872404 	5.57767e-22 0.723047 	-0.0090386 	1.0083e-21 0.724883 	-0.00921617 	1.03973e-21 0.726587 	-0.00936146 	9.73196e-22 0.728204 	-0.00947702 	7.97054e-22 0.729553 	-0.00949872 	2.71791e-22 0.731848 	-0.00983985 	2.00283e-22 0.733679 	-0.01007 	1.25839e-22 0.735322 	-0.0102552 	5.02002e-23 0.736845 	-0.0104022 	0 0.73814 	-0.0104743 	0 0.74034 	-0.010843 	0 0.742164 	-0.0111243 	-4.37637e-23 0.743742 	-0.0113489 	-1.15901e-22 0.745169 	-0.0115274 	-2.59506e-22 0.746407 	-0.0116481 	-4.93171e-22 0.748512 	-0.012045 	-8.57069e-22 0.750327 	-0.0123766 	-1.01355e-21 0.75184 	-0.0126401 	-9.53387e-22 0.753166 	-0.0128502 	-5.95065e-22 0.754345 	-0.013018 	-1.48735e-24 0.756356 	-0.0134439 	5.93355e-22 0.758162 	-0.0138252 	1.00712e-21 0.759608 	-0.0141273 	1.09653e-21 0.760828 	-0.0143689 	8.76697e-22 0.761945 	-0.014583 	5.16396e-22 0.763863 	-0.0150386 	2.86762e-22 0.76566 	-0.0154693 	7.55902e-23 0.767036 	-0.0158098 	-6.71088e-23 0.768146 	-0.0160834 	-1.46385e-22 0.769198 	-0.0163428 	-2.12646e-22 0.771023 	-0.016829 	-1.42194e-22 0.772813 	-0.0173091 	-7.16706e-23 0.774117 	-0.0176881 	-8.9614e-25 0.775112 	-0.0179938 	6.38886e-28 0.776096 	-0.0182979 	9.51139e-28 0.777826 	-0.0188153 	6.16611e-28 0.779547 	-0.0193317 	2.81769e-28 0.780794 	-0.0197516 	5.70433e-23 0.781715 	-0.0201007 	1.2323e-22 0.782629 	-0.0204491 	1.8938e-22 0.784265 	-0.0209984 	1.17918e-22 0.785891 	-0.0215467 	4.6386e-23 0.787098 	-0.0220121 	0 0.787947 	-0.0224051 	0 0.788788 	-0.0227974 	0 0.790328 	-0.0233795 	0 0.791858 	-0.0239603 	0 0.793023 	-0.0244718 	-2.798e-23 0.793796 	-0.0249086 	-9.36294e-23 0.794561 	-0.0253446 	-1.59233e-22 0.796006 	-0.02596 	-8.70028e-23 0.797438 	-0.0265742 	-1.46946e-23 0.798558 	-0.0271324 	-1.10509e-23 0.799253 	-0.0276128 	-7.65598e-23 0.799939 	-0.0280924 	-1.42018e-22 0.801285 	-0.0287418 	-6.91742e-23 0.802604 	-0.0293876 	0 0.803642 	-0.0299871 	0 0.804305 	-0.0305198 	0 0.804908 	-0.0310428 	0 0.806154 	-0.0317269 	0 0.807295 	-0.0323955 	0 0.808235 	-0.0330337 	0 0.808939 	-0.0336315 	0 0.809457 	-0.0341979 	0 0.8106 	-0.0349173 	0 0.811556 	-0.0356104 	0 0.812395 	-0.0362876 	0 0.813143 	-0.0369501 	-1.29592e-23 0.813571 	-0.0375597 	-7.64364e-23 0.81461 	-0.0383149 	-3.13474e-24 0.815371 	-0.0390341 	1.58469e-22 0.816107 	-0.0397505 	3.24215e-22 0.816829 	-0.0404655 	4.90165e-22 0.817237 	-0.04113 	5.51685e-22 0.818084 	-0.0419112 	1.79675e-22 0.818727 	-0.0426682 	2.51546e-22 0.819356 	-0.0434239 	3.24712e-22 0.819971 	-0.0441782 	3.9917e-22 0.820439 	-0.0449103 	6.9896e-22 0.820953 	-0.045544 	6.12591e-22 0.821373 	-0.0461675 	5.01741e-22 0.821785 	-0.0467902 	3.91043e-22 0.822187 	-0.0474121 	2.80496e-22 0.822528 	-0.0479503 	1.84811e-22 0.822661 	-0.0481397 	1.44738e-22 0.822794 	-0.048329 	1.04652e-22 0.822925 	-0.0485183 	6.45552e-23 0.823056 	-0.0487075 	2.44461e-23 0.823154 	-0.0488922 	0 0.823704 	-0.0497392 	-8.14752e-25 0.824193 	-0.0505768 	-1.72898e-24 0.824668 	-0.0514131 	-2.64166e-24 0.825129 	-0.052248 	-3.55279e-24 0.825397 	-0.0530602 	-4.43103e-23 0.82604 	-0.0539794 	-3.74897e-22 0.826418 	-0.0548559 	-4.30414e-22 0.826781 	-0.055731 	-4.86839e-22 0.827129 	-0.0566047 	-5.44172e-22 0.827124 	-0.0574393 	-3.96921e-22 0.827812 	-0.0584211 	-5.28312e-23 0.828133 	-0.0593454 	-2.03382e-24 0.82838 	-0.0602589 	-7.62118e-25 0.828465 	-0.0611555 	-1.37608e-22 0.828317 	-0.0620284 	-4.81043e-22 0.828879 	-0.0630452 	-2.05156e-22 0.829322 	-0.0640444 	0 0.829448 	-0.0649955 	0 0.829229 	-0.0659125 	0 0.828956 	-0.0668252 	0 0.829389 	-0.0678764 	0 0.829804 	-0.0689259 	0 0.82981 	-0.0699235 	0 0.829425 	-0.0708751 	0 0.829022 	-0.0718262 	0 0.829321 	-0.0729108 	0 0.829602 	-0.0739937 	0 0.829497 	-0.0750427 	3.95866e-22 0.829032 	-0.076039 	6.96541e-22 0.828496 	-0.0770268 	9.82448e-22 0.828657 	-0.0781436 	2.67813e-22 0.828581 	-0.0792401 	2.168e-22 0.828328 	-0.0803217 	6.42818e-22 0.828033 	-0.0813982 	1.11169e-21 0.827357 	-0.0824209 	2.21583e-21 0.827296 	-0.0835615 	1.57697e-21 0.826917 	-0.0846759 	1.72986e-21 0.826516 	-0.0857886 	1.88617e-21 0.826095 	-0.0868995 	2.04591e-21 0.825588 	-0.0880006 	2.38733e-21 0.825542 	-0.0882133 	2.43344e-21 0.825449 	-0.088422 	2.38591e-21 0.825354 	-0.0886307 	2.33836e-21 0.825259 	-0.0888393 	2.29079e-21 0.825166 	-0.0890426 	2.24442e-21 0.824824 	-0.0899816 	2.11371e-21 0.824469 	-0.0909194 	1.98353e-21 0.8241 	-0.0918561 	1.8539e-21 0.823718 	-0.0927916 	1.7248e-21 0.823119 	-0.093707 	1.11147e-21 0.822845 	-0.0949288 	8.22731e-22 0.822276 	-0.096102 	2.90027e-22 0.821687 	-0.0972735 	-2.42618e-22 0.82099 	-0.0984347 	-7.04243e-22 0.819975 	-0.099567 	-9.20641e-22 0.819642 	-0.100828 	-2.69411e-21 0.819182 	-0.10207 	-3.98597e-21 0.818438 	-0.103265 	-4.0535e-21 0.817305 	-0.104422 	-2.09642e-21 0.816128 	-0.105577 	-2.31832e-23 0.815632 	-0.106858 	1.99218e-21 0.815112 	-0.108136 	4.00714e-21 0.814223 	-0.109373 	4.15388e-21 0.812905 	-0.110547 	2.49067e-21 0.811561 	-0.111721 	8.23923e-22 0.810897 	-0.113017 	1.36714e-21 0.810011 	-0.114292 	1.56809e-21 0.808905 	-0.115544 	1.43111e-21 0.807774 	-0.116794 	1.29219e-21 0.806259 	-0.117982 	4.96103e-22 0.805561 	-0.118996 	4.37688e-22 0.804586 	-0.119981 	4.67075e-22 0.803596 	-0.120964 	4.96822e-22 0.802589 	-0.121946 	5.2693e-22 0.801663 	-0.122834 	5.54504e-22 0.801383 	-0.123134 	5.41694e-22 0.801102 	-0.123433 	5.28853e-22 0.80082 	-0.123733 	5.15982e-22 0.800536 	-0.124032 	5.0308e-22 0.800174 	-0.124322 	4.64838e-22 0.799017 	-0.125623 	-2.14249e-22 0.797731 	-0.126902 	-4.54133e-22 0.796419 	-0.128178 	-6.99606e-22 0.795064 	-0.12945 	-8.39643e-22 0.793304 	-0.130673 	1.21446e-21 0.792213 	-0.132027 	2.57229e-21 0.790965 	-0.133351 	3.53883e-21 0.789475 	-0.134628 	3.86082e-21 0.787586 	-0.135852 	3.03911e-21 0.78564 	-0.137075 	2.14002e-21 0.784363 	-0.138424 	4.54586e-21 0.783057 	-0.139772 	6.95091e-21 0.781379 	-0.141067 	5.90834e-21 0.77931 	-0.142287 	2.58227e-21 0.777174 	-0.143502 	-9.41624e-22 0.775706 	-0.144843 	-2.52209e-21 0.773874 	-0.14613 	-2.84826e-21 0.771946 	-0.147404 	-2.92384e-21 0.769988 	-0.148676 	-2.99786e-21 0.767902 	-0.149931 	-2.82582e-21 0.767641 	-0.150138 	-2.77504e-21 0.767319 	-0.150336 	-2.77329e-21 0.766994 	-0.150533 	-2.77311e-21 0.766669 	-0.15073 	-2.77299e-21 0.766348 	-0.150923 	-2.77295e-21 0.764739 	-0.151999 	-2.37376e-21 0.763109 	-0.153074 	-1.97285e-21 0.761459 	-0.154147 	-1.5702e-21 0.759789 	-0.155218 	-1.1658e-21 0.757766 	-0.15623 	-1.20761e-21 0.756021 	-0.157565 	-2.3401e-21 0.754046 	-0.158849 	-2.904e-21 0.751912 	-0.160098 	-3.0998e-21 0.749414 	-0.161277 	-2.10754e-21 0.746814 	-0.162446 	-8.96896e-22 0.744869 	-0.163754 	-1.68805e-21 0.742892 	-0.165059 	-2.47774e-21 0.740525 	-0.166283 	-2.77343e-21 0.737838 	-0.167434 	-2.24819e-21 0.735035 	-0.16857 	-1.50371e-21 0.733108 	-0.169711 	-1.36927e-21 0.73084 	-0.170777 	-1.5321e-21 0.728505 	-0.171832 	-1.73407e-21 0.726144 	-0.172885 	-1.93819e-21 0.723974 	-0.17384 	-2.12557e-21 0.723673 	-0.173985 	-2.17329e-21 0.723372 	-0.17413 	-2.22108e-21 0.723071 	-0.174275 	-2.26892e-21 0.722766 	-0.174418 	-2.29125e-21 0.722417 	-0.174551 	-2.03853e-21 0.719952 	-0.175734 	-1.43836e-21 0.717381 	-0.176893 	-8.20346e-22 0.714779 	-0.17805 	-2.01737e-22 0.712057 	-0.17918 	2.92292e-22 0.708995 	-0.18023 	3.78541e-22 0.706565 	-0.181435 	2.09835e-21 0.704101 	-0.182637 	3.81677e-21 0.70124 	-0.183727 	3.89804e-21 0.698024 	-0.184718 	2.26363e-21 0.694754 	-0.185713 	6.18956e-22 0.692116 	-0.186862 	1.9389e-22 0.68923 	-0.187941 	1.33333e-22 0.686143 	-0.188964 	3.54569e-22 0.683021 	-0.189984 	5.76234e-22 0.679714 	-0.19097 	8.26307e-22 0.679226 	-0.191157 	7.86678e-22 0.678688 	-0.191327 	7.68815e-22 0.678133 	-0.191491 	7.58112e-22 0.677578 	-0.191656 	7.47431e-22 0.67703 	-0.191817 	7.36946e-22 0.674525 	-0.192642 	9.28081e-22 0.671996 	-0.193466 	1.12163e-21 0.669445 	-0.194287 	1.31762e-21 0.666815 	-0.195085 	1.26678e-21 0.663909 	-0.195791 	1.39072e-22 0.661007 	-0.19682 	-9.94595e-22 0.658051 	-0.197839 	-2.07886e-21 0.654717 	-0.19873 	-2.16563e-21 0.651073 	-0.199501 	-1.17237e-21 0.647364 	-0.200276 	-1.72498e-22 0.644255 	-0.20123 	-9.41798e-23 0.640941 	-0.202107 	-9.49893e-23 0.637409 	-0.2029 	-1.81663e-22 0.633838 	-0.20369 	-2.69143e-22 0.630072 	-0.204438 	-3.55127e-22 0.629532 	-0.20458 	-3.85698e-22 0.628953 	-0.204705 	-3.94298e-22 0.628354 	-0.204821 	-3.92117e-22 0.627755 	-0.204937 	-3.89948e-22 0.627163 	-0.205051 	-3.87821e-22 0.62428 	-0.205684 	-3.07815e-22 0.621371 	-0.206316 	-2.276e-22 0.618438 	-0.206946 	-1.47176e-22 0.615411 	-0.207535 	-1.09024e-22 0.612145 	-0.208017 	-1.88728e-22 0.608802 	-0.208798 	-1.8189e-22 0.605421 	-0.209576 	-1.75144e-22 0.601687 	-0.210199 	-1.45895e-22 0.597662 	-0.210679 	-6.63075e-23 0.593561 	-0.211161 	1.41585e-23 0.590187 	-0.211818 	4.15106e-23 0.586589 	-0.212355 	9.06723e-23 0.582853 	-0.212825 	1.51954e-22 0.57908 	-0.213292 	2.13426e-22 0.575574 	-0.213718 	2.70199e-22 0.575326 	-0.213754 	2.70754e-22 0.575077 	-0.213789 	2.71308e-22 0.574829 	-0.213825 	2.71861e-22 0.574575 	-0.213856 	2.7205e-22 0.57431 	-0.213877 	2.71463e-22 0.57057 	-0.214354 	1.77935e-22 0.566749 	-0.214806 	7.61911e-23 0.562891 	-0.215255 	-2.54985e-23 0.558889 	-0.215611 	-1.1273e-22 0.554659 	-0.215844 	-1.80876e-22 0.55092 	-0.216317 	-1.0722e-22 0.54714 	-0.216785 	-3.36225e-23 0.543118 	-0.217075 	1.28793e-22 0.538819 	-0.217227 	1.93939e-22 0.534385 	-0.217355 	2.31264e-22 0.532243 	-0.217557 	3.85336e-22 0.53001 	-0.217689 	4.75838e-22 0.527706 	-0.217767 	5.17463e-22 0.52539 	-0.217844 	5.59262e-22 0.523161 	-0.217916 	5.99434e-22 0.521301 	-0.218008 	7.18592e-22 0.519432 	-0.218099 	8.38171e-22 0.517554 	-0.218189 	9.58175e-22 0.515637 	-0.218237 	9.46877e-22 0.513647 	-0.218214 	7.18624e-22 0.509752 	-0.218441 	3.97627e-22 0.505704 	-0.218597 	2.86974e-22 0.501515 	-0.218682 	3.65595e-22 0.497108 	-0.218531 	8.01005e-22 0.492605 	-0.218374 	1.24092e-21 0.488517 	-0.218494 	2.08925e-21 0.484294 	-0.218487 	2.17644e-21 0.479934 	-0.218349 	1.48319e-21 0.475534 	-0.218208 	7.86112e-22 0.471018 	-0.218053 	3.88741e-23 0.470958 	-0.218053 	3.59251e-23 0.470896 	-0.218052 	3.17545e-23 0.470834 	-0.218048 	2.6296e-23 0.470771 	-0.218045 	2.08373e-23 0.470708 	-0.218042 	1.53844e-23 0.466578 	-0.217872 	-1.53467e-22 0.462411 	-0.217699 	-3.21217e-22 0.458208 	-0.217523 	-4.87838e-22 0.453922 	-0.217227 	-6.4909e-22 0.449477 	-0.21677 	-8.05945e-22 0.445281 	-0.21662 	-4.23886e-22 0.441044 	-0.216465 	-4.14408e-23 0.436667 	-0.216062 	0 0.432153 	-0.215561 	-1.64018e-22 0.427441 	-0.214986 	-4.90685e-22 0.425742 	-0.214886 	-1.70957e-22 0.424017 	-0.214735 	1.34735e-24 0.422262 	-0.214527 	4.24276e-24 0.420501 	-0.214317 	7.13921e-24 0.418783 	-0.214113 	9.95652e-24 0.416135 	-0.213822 	1.18274e-23 0.413472 	-0.213528 	1.36897e-23 0.410794 	-0.213233 	1.5543e-23 0.408207 	-0.212868 	2.67158e-22 0.405701 	-0.212418 	8.10732e-22 0.401295 	-0.211959 	4.67774e-22 0.396847 	-0.211494 	1.27821e-22 0.392512 	-0.210847 	2.23617e-22 0.388356 	-0.210022 	6.81797e-22 0.384091 	-0.209178 	1.14879e-21 0.380977 	-0.208793 	1.02058e-21 0.377949 	-0.208331 	8.95582e-22 0.375034 	-0.207775 	7.74301e-22 0.372102 	-0.207217 	6.53694e-22 0.369288 	-0.206682 	5.39215e-22 0.367796 	-0.206414 	3.78962e-22 0.366299 	-0.206145 	2.18667e-22 0.364798 	-0.205875 	5.83286e-23 0.363418 	-0.205566 	0 0.362096 	-0.205233 	0 0.357426 	-0.204405 	0 0.352749 	-0.203542 	-8.6499e-23 0.348199 	-0.202591 	-4.27617e-22 0.344079 	-0.201485 	-1.28947e-21 0.339839 	-0.20035 	-2.16827e-21 0.336736 	-0.199752 	-3.82187e-21 0.33372 	-0.199117 	-4.49289e-21 0.33095 	-0.198394 	-2.70508e-21 0.328166 	-0.197668 	-9.13781e-22 0.325486 	-0.196971 	8.04913e-22 0.323863 	-0.196563 	1.13363e-21 0.322234 	-0.196155 	1.46205e-21 0.320601 	-0.195745 	1.79015e-21 0.31909 	-0.195283 	1.72575e-21 0.317607 	-0.194798 	1.52633e-21 0.31311 	-0.193677 	9.85456e-22 0.308572 	-0.19255 	4.41011e-22 0.304217 	-0.191285 	-7.60368e-22 0.300103 	-0.189889 	-2.85782e-21 0.295863 	-0.188456 	-5.00636e-21 0.293885 	-0.187938 	-6.73698e-21 0.291933 	-0.187404 	-7.94651e-21 0.290131 	-0.186803 	-6.67401e-21 0.288322 	-0.1862 	-5.40068e-21 0.286555 	-0.185613 	-4.15994e-21 0.284055 	-0.184803 	-2.80615e-21 0.281543 	-0.183991 	-1.45196e-21 0.279019 	-0.183177 	-9.73674e-23 0.276711 	-0.182274 	5.5547e-22 0.274405 	-0.181343 	1.08951e-21 0.269978 	-0.179922 	8.05008e-22 0.265511 	-0.178494 	5.23949e-22 0.261438 	-0.176893 	2.80277e-22 0.257357 	-0.175278 	4.10417e-23 0.253167 	-0