# vtk DataFile Version 2.0
track0
ASCII
DATASET POLYDATA
POINTS 10927 float
-0.0205 0.001 1e-05
-0.02052 0.00100026 1e-05
-0.02054 0.00100046 1e-05
-0.02056 0.00100062 1e-05
-0.02058 0.00100072 1e-05
-0.0206 0.00100077 1e-05
-0.0205 0.00367778 1e-05
-0.02052 0.0036779 1e-05
-0.02054 0.00367799 1e-05
-0.02056 0.00367806 1e-05
-0.02058 0.00367811 1e-05
-0.0206 0.00367814 1e-05
-0.0205 0.00635556 1e-05
-0.02052 0.00635559 1e-05
-0.02054 0.00635561 1e-05
-0.02056 0.00635563 1e-05
-0.02058 0.00635565 1e-05
-0.0206 0.00635565 1e-05
-0.0205 0.00903333 1e-05
-0.02052 0.00903335 1e-05
-0.02054 0.00903336 1e-05
-0.02056 0.00903337 1e-05
-0.02058 0.00903337 1e-05
-0.0206 0.00903337 1e-05
-0.0205 0.0117111 1e-05
-0.02052 0.0117111 1e-05
-0.02054 0.0117111 1e-05
-0.02056 0.0117111 1e-05
-0.02058 0.0117111 1e-05
-0.0206 0.0117111 1e-05
-0.0205 0.0143889 1e-05
-0.02052 0.0143889 1e-05
-0.02054 0.0143889 1e-05
-0.02056 0.0143889 1e-05
-0.02058 0.0143889 1e-05
-0.0206 0.0143889 1e-05
-0.0205 0.0170667 1e-05
-0.02052 0.0170666 1e-05
-0.02054 0.0170666 1e-05
-0.02056 0.0170666 1e-05
-0.02058 0.0170666 1e-05
-0.0206 0.0170666 1e-05
-0.0205 0.0197444 1e-05
-0.02052 0.0197444 1e-05
-0.02054 0.0197443 1e-05
-0.02056 0.0197443 1e-05
-0.02058 0.0197443 1e-05
-0.0206 0.0197443 1e-05
-0.0205 0.0224222 1e-05
-0.02052 0.0224221 1e-05
-0.02054 0.022422 1e-05
-0.02056 0.0224219 1e-05
-0.02058 0.0224218 1e-05
-0.0206 0.0224218 1e-05
-0.0205 0.0251 1e-05
-0.02052 0.0250982 1e-05
-0.02054 0.0250967 1e-05
-0.0205601 0.0250956 1e-05
-0.0205802 0.0250949 1e-05
-0.0206 0.0250945 1e-05
-0.0205 0.001 1e-05
-0.0202034 0.000996197 1e-05
-0.0199071 0.00098489 1e-05
-0.0196111 0.0009662 1e-05
-0.0193156 0.000939965 1e-05
-0.0190172 0.000906935 1e-05
-0.0187132 0.00087312 1e-05
-0.0184093 0.000839451 1e-05
-0.0181054 0.000805928 1e-05
-0.0178013 0.000773785 1e-05
-0.0174976 0.000743974 1e-05
-0.0173142 0.000727293 1e-05
-0.0171308 0.000711451 1e-05
-0.0169473 0.000696316 1e-05
-0.0167638 0.000681816 1e-05
-0.0164828 0.000660565 1e-05
-0.016394 0.00065429 1e-05
-0.0163051 0.000648155 1e-05
-0.0162163 0.000642159 1e-05
-0.0161274 0.000636298 1e-05
-0.0160387 0.000630569 1e-05
-0.0157586 0.000612699 1e-05
-0.0154784 0.00059607 1e-05
-0.0151981 0.000580482 1e-05
-0.0149178 0.000565885 1e-05
-0.0146381 0.000552094 1e-05
-0.0143692 0.000539215 1e-05
-0.0141002 0.000527259 1e-05
-0.0138312 0.00051616 1e-05
-0.0135621 0.000505682 1e-05
-0.0132934 0.000495487 1e-05
-0.0130353 0.000485947 1e-05
-0.0127771 0.000477111 1e-05
-0.0125188 0.000468937 1e-05
-0.0122606 0.000461136 1e-05
-0.0120025 0.000453506 1e-05
-0.0117547 0.000446335 1e-05
-0.0115068 0.000439697 1e-05
-0.0112589 0.000433506 1e-05
-0.011011 0.000427545 1e-05
-0.0107632 0.000421727 1e-05
-0.0105252 0.00041623 1e-05
-0.0102873 0.00041114 1e-05
-0.0100493 0.000406308 1e-05
-0.00981129 0.000401642 1e-05
-0.00957337 0.000397116 1e-05
-0.00934491 0.000392815 1e-05
-0.00911645 0.000388833 1e-05
-0.00888798 0.000384989 1e-05
-0.00865951 0.000381268 1e-05
-0.00843108 0.000377669 1e-05
-0.00821175 0.00037424 1e-05
-0.00799242 0.000371034 1e-05
-0.00777308 0.000367921 1e-05
-0.00755375 0.0003649 1e-05
-0.00733443 0.000361969 1e-05
-0.00712387 0.000359182 1e-05
-0.0069133 0.000356547 1e-05
-0.00670273 0.00035398 1e-05
-0.00649216 0.000351481 1e-05
-0.0062816 0.000349049 1e-05
-0.00607944 0.000346741 1e-05
-0.00587729 0.000344533 1e-05
-0.00567513 0.000342374 1e-05
-0.00547298 0.000340264 1e-05
-0.00527083 0.000338203 1e-05
-0.00507675 0.000336249 1e-05
-0.00488267 0.000334354 1e-05
-0.0046886 0.000332493 1e-05
-0.00449452 0.000330663 1e-05
-0.00430044 0.000328865 1e-05
-0.00411412 0.000327158 1e-05
-0.0039278 0.000325476 1e-05
-0.00374147 0.000323808 1e-05
-0.00355515 0.000322152 1e-05
-0.00336883 0.000320509 1e-05
-0.00333075 0.000320175 1e-05
-0.00329268 0.000319841 1e-05
-0.00325461 0.000319506 1e-05
-0.00321653 0.00031917 1e-05
-0.00317926 0.000318841 1e-05
-0.00303829 0.000317591 1e-05
-0.00289733 0.000316329 1e-05
-0.00275636 0.000315057 1e-05
-0.0026154 0.000313774 1e-05
-0.00247443 0.000312479 1e-05
-0.0023027 0.000310871 1e-05
-0.00213097 0.000309205 1e-05
-0.00195924 0.000307458 1e-05
-0.00178751 0.00030563 1e-05
-0.00161577 0.000303723 1e-05
-0.0014509 0.000301769 1e-05
-0.00128603 0.000299612 1e-05
-0.00112117 0.000297142 1e-05
-0.000956311 0.000294364 1e-05
-0.000791418 0.00029128 1e-05
-0.000633135 0.000287877 1e-05
-0.000474867 0.000283815 1e-05
-0.000316625 0.000278811 1e-05
-0.000158416 0.00027288 1e-05
0 0.000266022 1e-05
0.000105677 0.000260629 1e-05
0.000211282 0.000253964 1e-05
0.00031685 0.000246736 1e-05
0.000422377 0.000238934 1e-05
0.000528387 0.000230818 1e-05
0.000634886 0.00022343 1e-05
0.000741326 0.000215233 1e-05
0.000847727 0.000206547 1e-05
0.000954124 0.0001978 1e-05
0.00106088 0.000189644 1e-05
0.00116821 0.000182263 1e-05
0.00127551 0.000174554 1e-05
0.00138279 0.000166527 1e-05
0.00149008 0.000158631 1e-05
0.00159752 0.000151295 1e-05
0.00170568 0.000144503 1e-05
0.00181383 0.000137587 1e-05
0.00192198 0.000130549 1e-05
0.00203013 0.000123657 1e-05
0.00213833 0.000117194 1e-05
0.00224733 0.000111126 1e-05
0.00235633 0.000105026 1e-05
0.00246533 9.89721e-05 1e-05
0.00257434 9.30969e-05 1e-05
0.00268334 8.74766e-05 1e-05
0.00279319 8.2161e-05 1e-05
0.00290304 7.68542e-05 1e-05
0.00301289 7.16749e-05 1e-05
0.00312276 6.66563e-05 1e-05
0.00323259 6.17998e-05 1e-05
0.00334329 5.71874e-05 1e-05
0.003454 5.26149e-05 1e-05
0.00356471 4.81833e-05 1e-05
0.00367542 4.38912e-05 1e-05
0.00378611 3.97388e-05 1e-05
0.00389767 3.57527e-05 1e-05
0.00400924 3.18376e-05 1e-05
0.00412081 2.80441e-05 1e-05
0.00423239 2.43712e-05 1e-05
0.00434393 2.08185e-05 1e-05
0.00445636 1.73824e-05 1e-05
0.0045688 1.40299e-05 1e-05
0.00468123 1.07816e-05 1e-05
0.00479367 7.63633e-06 1e-05
0.00490609 4.5939e-06 1e-05
0.00494126 3.67512e-06 1e-05
0.00497643 2.7637e-06 1e-05
0.0050116 1.86079e-06 1e-05
0.00504677 9.66384e-07 1e-05
0.00508513 0 1e-05
0.00516263 -1.93188e-06 1e-05
0.00524013 -3.82315e-06 1e-05
0.00531763 -5.6741e-06 1e-05
0.00539513 -7.48499e-06 1e-05
0.00547262 -9.25589e-06 1e-05
0.00558681 -1.17968e-05 1e-05
0.005701 -1.42765e-05 1e-05
0.00581519 -1.6684e-05 1e-05
0.00592938 -1.90199e-05 1e-05
0.00604356 -2.12847e-05 1e-05
0.00615863 -2.34768e-05 1e-05
0.00627371 -2.56322e-05 1e-05
0.00638878 -2.77286e-05 1e-05
0.00650386 -2.97667e-05 1e-05
0.00661893 -3.17468e-05 1e-05
0.0067349 -3.36598e-05 1e-05
0.00685087 -3.55544e-05 1e-05
0.00696684 -3.74021e-05 1e-05
0.00708281 -3.92033e-05 1e-05
0.00719878 -4.09584e-05 1e-05
0.00731565 -4.26537e-05 1e-05
0.00743252 -4.43451e-05 1e-05
0.00754939 -4.60006e-05 1e-05
0.00766626 -4.76204e-05 1e-05
0.00778313 -4.92049e-05 1e-05
0.00790091 -5.0738e-05 1e-05
0.00801869 -5.22789e-05 1e-05
0.00813647 -5.37939e-05 1e-05
0.00825425 -5.52833e-05 1e-05
0.00837203 -5.67472e-05 1e-05
0.00849073 -5.81684e-05 1e-05
0.00860942 -5.96074e-05 1e-05
0.00872812 -6.10297e-05 1e-05
0.00884682 -6.24355e-05 1e-05
0.00896551 -6.38249e-05 1e-05
0.00908513 -6.51804e-05 1e-05
0.00920475 -6.65622e-05 1e-05
0.00932437 -6.79358e-05 1e-05
0.00944398 -6.93014e-05 1e-05
0.0095636 -7.06589e-05 1e-05
0.00968415 -7.19911e-05 1e-05
0.0098047 -7.33573e-05 1e-05
0.00992525 -7.47233e-05 1e-05
0.0100458 -7.60891e-05 1e-05
0.0101663 -7.74546e-05 1e-05
0.0102878 -7.88034e-05 1e-05
0.0104093 -8.01929e-05 1e-05
0.0105308 -8.159e-05 1e-05
0.0106523 -8.29942e-05 1e-05
0.0107738 -8.44041e-05 1e-05
0.0108962 -8.58073e-05 1e-05
0.0110186 -8.72551e-05 1e-05
0.0111411 -8.87202e-05 1e-05
0.0112635 -9.01996e-05 1e-05
0.0113859 -9.16898e-05 1e-05
0.0115093 -9.31834e-05 1e-05
0.0116327 -9.47258e-05 1e-05
0.0117561 -9.62945e-05 1e-05
0.0118794 -9.78841e-05 1e-05
0.0120028 -9.94899e-05 1e-05
0.0121272 -0.000101109 1e-05
0.0122515 -0.000102781 1e-05
0.0123759 -0.000104487 1e-05
0.0125002 -0.000106221 1e-05
0.0126245 -0.000107977 1e-05
0.0127498 -0.000109755 1e-05
0.0128752 -0.00011159 1e-05
0.0130005 -0.000113468 1e-05
0.0131258 -0.00011538 1e-05
0.0132511 -0.000117319 1e-05
0.0133774 -0.00011929 1e-05
0.0135036 -0.000121322 1e-05
0.0136299 -0.000123405 1e-05
0.0137562 -0.000125528 1e-05
0.0138825 -0.000127682 1e-05
0.0140098 -0.000129879 1e-05
0.014137 -0.000132141 1e-05
0.0142643 -0.000134461 1e-05
0.0143915 -0.000136828 1e-05
0.0145188 -0.000139232 1e-05
0.0146471 -0.000141686 1e-05
0.0147753 -0.000144211 1e-05
0.0149036 -0.000146803 1e-05
0.0150318 -0.000149446 1e-05
0.0151601 -0.000152132 1e-05
0.0152893 -0.000154878 1e-05
0.0154186 -0.000157699 1e-05
0.0155478 -0.000160594 1e-05
0.0156771 -0.000163547 1e-05
0.0158063 -0.000166547 1e-05
0.0159366 -0.000169618 1e-05
0.0160668 -0.000172769 1e-05
0.0161971 -0.000175999 1e-05
0.0163273 -0.000179294 1e-05
0.0164576 -0.000182644 1e-05
0.0165889 -0.000186074 1e-05
0.0167201 -0.000189588 1e-05
0.0168514 -0.000193187 1e-05
0.0169827 -0.000196858 1e-05
0.0171139 -0.000200591 1e-05
0.0172462 -0.000204414 1e-05
0.0173785 -0.000208328 1e-05
0.0175108 -0.00021233 1e-05
0.0176431 -0.000216412 1e-05
0.0177754 -0.000220564 1e-05
0.0179087 -0.000224816 1e-05
0.018042 -0.000229164 1e-05
0.0181753 -0.000233607 1e-05
0.0183086 -0.000238136 1e-05
0.018442 -0.000242743 1e-05
0.0185763 -0.000247461 1e-05
0.0187107 -0.00025228 1e-05
0.018845 -0.000257199 1e-05
0.0189794 -0.000262212 1e-05
0.0191137 -0.000267311 1e-05
0.0192491 -0.000272533 1e-05
0.0193845 -0.000277861 1e-05
0.0195199 -0.000283294 1e-05
0.0196553 -0.000288828 1e-05
0.0197907 -0.000294458 1e-05
0.0199272 -0.000300223 1e-05
0.0200636 -0.0003061 1e-05
0.0202001 -0.000312087 1e-05
0.0203365 -0.000318181 1e-05
0.020473 -0.000324383 1e-05
0.0206105 -0.000330732 1e-05
0.020748 -0.000337199 1e-05
0.0208855 -0.000343782 1e-05
0.021023 -0.000350479 1e-05
0.0211606 -0.000357293 1e-05
0.0212991 -0.000364267 1e-05
0.0214377 -0.000371367 1e-05
0.0215763 -0.000378588 1e-05
0.0217148 -0.000385932 1e-05
0.0218535 -0.0003934 1e-05
0.0219628 -0.000399383 1e-05
0.0220721 -0.000405447 1e-05
0.0221813 -0.00041159 1e-05
[...]
POINT_DATA 10927
 FIELD attributes 2
p 1 10927 float
-0.495969 -0.495744 -0.495513 -0.495278 -0.495037 -0.494792
-0.366368 -0.366359 -0.366352 -0.366347 -0.366343 -0.366341
-0.217237 -0.217116 -0.216996 -0.216876 -0.216757 -0.216659
-0.135368 -0.135421 -0.135474 -0.135527 -0.13558 -0.135633
-0.101889 -0.102025 -0.10216 -0.102295 -0.10243 -0.102566
-0.108919 -0.109048 -0.109177 -0.109306 -0.109436 -0.109565
-0.150729 -0.150819 -0.15091 -0.151 -0.151091 -0.151182
-0.248586 -0.248638 -0.248691 -0.248745 -0.248799 -0.248854
-0.411583 -0.411559 -0.411537 -0.411517 -0.411499 -0.411483
-0.387824 -0.388609 -0.389356 -0.390063 -0.39073 -0.391349
-0.495969 -0.481568 -0.46755 -0.454969 -0.439245 -0.40276 -0.369184 -0.335616 -0.312093 -0.296937 -0.281998 -0.273052 -0.265077 -0.257585 -0.250098 -0.238648 -0.234754 -0.230867 -0.226988 -0.223225 -0.220199 -0.209983 -0.200403 -0.190869 -0.181976 -0.174396 -0.166228 -0.158137 -0.151118 -0.145493 -0.13988 -0.133721 -0.127576 -0.122425 -0.118193 -0.113967 -0.109228 -0.104686 -0.100844 -0.0974065 -0.0941912 -0.0904982 -0.0872423 -0.0842699 -0.0814157 -0.0789632 -0.0760669 -0.073713 -0.0714054 -0.0690985 -0.0671874 -0.0649922 -0.0631997 -0.0614078 -0.0596164 -0.0580703 -0.0564329 -0.0550505 -0.0536686 -0.0522871 -0.051055 -0.0498529 -0.0488088 -0.047765 -0.0467215 -0.0457637 -0.0449227 -0.0441743 -0.0434262 -0.0426782 -0.0419717 -0.0414622 -0.0409989 -0.0405357 -0.0400725 -0.0396161 -0.0395803 -0.039553 -0.0395256 -0.0394982 -0.0394714 -0.0393623 -0.0392531 -0.0391438 -0.0390344 -0.0389675 -0.0392576 -0.0395982 -0.0399379 -0.0402766 -0.040745 -0.0418532 -0.0431517 -0.0444453 -0.0457339 -0.0474584 -0.0498046 -0.0521579 -0.0545108 -0.0568631 -0.0625516 -0.0645949 -0.0644125 -0.0642911 -0.0634424 -0.0600954 -0.0544683 -0.0497485 -0.0463396 -0.0446407 -0.0432853 -0.0392029 -0.0351386 -0.0336792 -0.0347011 -0.0356991 -0.0345026 -0.0333116 -0.0328065 -0.0335176 -0.0342155 -0.0336508 -0.033168 -0.0328241 -0.032769 -0.0330583 -0.0326216 -0.0323548 -0.0321339 -0.0319124 -0.0321987 -0.0320334 -0.0319892 -0.0319417 -0.0318908 -0.0320679 -0.0320921 -0.0321579 -0.0322213 -0.0322825 -0.0324238 -0.0325535 -0.0327011 -0.032847 -0.0329912 -0.0331479 -0.0332145 -0.0332848 -0.0333549 -0.0334249 -0.0335012 -0.0336504 -0.0337992 -0.0339475 -0.0340953 -0.0342515 -0.0345177 -0.0348044 -0.0350904 -0.0353756 -0.0356783 -0.0359806 -0.036323 -0.0366648 -0.0370062 -0.0373726 -0.0377122 -0.0381028 -0.038493 -0.0388829 -0.0393038 -0.0396795 -0.0401118 -0.0405437 -0.0409754 -0.0414424 -0.0418513 -0.0423186 -0.0427858 -0.0432528 -0.0437581 -0.0441958 -0.0446921 -0.0451882 -0.0456843 -0.0462204 -0.0466823 -0.0472019 -0.0477215 -0.048241 -0.0488023 -0.0492843 -0.0498227 -0.0503611 -0.0508994 -0.0514808 -0.0519797 -0.0525319 -0.0530848 -0.0536403 -0.0542346 -0.0547498 -0.0553083 -0.0558717 -0.0564409 -0.0570434 -0.0575703 -0.0581321 -0.058702 -0.0592809 -0.0598878 -0.0604222 -0.0609841 -0.0615571 -0.0621418 -0.0627496 -0.0632877 -0.0638468 -0.0644195 -0.0650066 -0.065612 -0.0661498 -0.066703 -0.0672722 -0.0678587 -0.0684589 -0.0689938 -0.0695387 -0.0701011 -0.0706831 -0.071274 -0.071802 -0.0723355 -0.0728879 -0.0734622 -0.0740411 -0.0745588 -0.075078 -0.0756174 -0.0761805 -0.0767443 -0.0772486 -0.0777533 -0.0782776 -0.0788226 -0.0793681 -0.0798556 -0.0803436 -0.080849 -0.0813725 -0.0818965 -0.082364 -0.0828321 -0.0833156 -0.0838144 -0.0843136 -0.0847579 -0.0852027 -0.0856613 -0.0861321 -0.0866035 -0.0870212 -0.0874402 -0.0878709 -0.0883094 -0.0887495 -0.0891373 -0.0895289 -0.0899271 -0.0903293 -0.0907348 -0.0910894 -0.0914487 -0.091811 -0.0921748 -0.0925422 -0.0928602 -0.0931821 -0.0935049 -0.0938285 -0.0941541 -0.0944319 -0.0947108 -0.0949905 -0.095271 -0.0955522 -0.095734 -0.0959155 -0.0960976 -0.0962801 -0.0964388 -0.0964949 -0.096551 -0.0966072 -0.0966634 -0.0967201 -0.0969018 -0.0970847 -0.0972685 -0.0974532 -0.0976394 -0.0977679 -0.0978971 -0.0980273 -0.0981584 -0.0982882 -0.0983612 -0.0984333 -0.0985061 -0.0985777 -0.098647 -0.0986605 -0.0986741 -0.098686 -0.0986912 -0.0986968 -0.0986471 -0.0985987 -0.0985434 -0.0984804 -0.0984185 -0.0983022 -0.0981872 -0.0980592 -0.0979264 -0.0977937 -0.0976072 -0.0974121 -0.0972111 -0.0970108 -0.096804 -0.09654 -0.0962615 -0.0959844 -0.0957087 -0.0954323 -0.0953697 -0.0953042 -0.0952389 -0.0951735 -0.0951099 -0.0948223 -0.0945356 -0.09425 -0.0939653 -0.0936666 -0.0932433 -0.0928112 -0.0923807 -0.0919451 -0.091487 -0.0909847 -0.0904799 -0.0899663 -0.0894238 -0.0888802 -0.088293 -0.0877075 -0.0870966 -0.0864655 -0.0858346 -0.0851609 -0.0844708 -0.0837646 -0.0830601 -0.0823409 -0.0817437 -0.0811229 -0.0805031 -0.0798845 -0.0793257 -0.0791406 -0.0789556 -0.0787707 -0.078586 -0.0783925 -0.0775204 -0.0766447 -0.0757711 -0.0748972 -0.0739796 -0.0730315 -0.0720785 -0.0711163 -0.0701126 -0.069105 -0.0680676 -0.0670323 -0.0659585 -0.0648648 -0.0637679 -0.0626417 -0.0614789 -0.0603106 -0.0591445 -0.0579718 -0.0577821 -0.0575854 -0.0573885 -0.0571918 -0.0569985 -0.0559469 -0.0548971 -0.053849 -0.0528026 -0.0517097 -0.0503969 -0.0490759 -0.0477504 -0.0463831 -0.0450042 -0.043609 -0.0422164 -0.0407805 -0.0393304 -0.0378722 -0.0365511 -0.0351934 -0.033833 -0.0324747 -0.0312429 -0.031061 -0.0308792 -0.0306974 -0.030515 -0.0303262 -0.0287452 -0.027163 -0.0255837 -0.0239944 -0.0223568 -0.0207175 -0.0190812 -0.0174185 -0.015723 -0.0140199 -0.012315 -0.0105862 -0.00883962 -0.00709606 -0.00533926 -0.00503695 -0.00472916 -0.00441964 -0.0041102 -0.00380593 -0.00231245 -0.000821123 0.000668039 0.00216342 0.00370213 0.00554527 0.00738588 0.0092432 0.0111356 0.0130397 0.0149309 0.0168399 0.0187683 0.0206934 0.0226346 0.022949 0.0232675 0.023588 0.0239083 0.024224 0.0258744 0.0275223 0.0291679 0.0308223 0.0325182 0.0345143 0.0365069 0.0385176 0.0405546 0.0426081 0.0445345 0.0464814 0.0484382 0.0503917 0.0521872 0.0523223 0.0524575 0.0525926 0.0527288 0.0528675 0.0549522 0.0570346 0.0591134 0.0612079 0.0633489 0.065444 0.0675352 0.0696551 0.0717821 0.0739315 0.0750758 0.0762298 0.0773908 0.0785507 0.0796597 0.0806506 0.0816408 0.0826301 0.083627 0.0846432 0.0867894 0.0889341 0.0910786 0.0932597 0.0954666 0.0976118 0.0997712 0.101945 0.104115 0.106313 0.106343 0.106373 0.106404 0.106434 0.106464 0.108619 0.110769 0.112916 0.115078 0.117294 0.119462 0.121627 0.123822 0.126018 0.128247 0.129079 0.129917 0.130762 0.131605 0.132425 0.133781 0.135136 0.136489 0.137857 0.139255 0.141428 0.143597 0.145785 0.147999 0.150251 0.151712 0.153184 0.154669 0.156152 0.157566 0.15829 0.159014 0.159738 0.160469 0.161209 0.163386 0.165559 0.167734 0.169928 0.172165 0.173538 0.174913 0.176295 0.177676 0.178997 0.179803 0.180609 0.181414 0.182224 0.183042 0.185198 0.18735 0.189502 0.191656 0.193856 0.194752 0.195648 0.196545 0.197441 0.198313 0.199565 0.200815 0.202064 0.203313 0.204578 0.206692 0.208803 0.210907 0.213007 0.215154 0.215298 0.215442 0.215585 0.215729 0.215872 0.217829 0.219782 0.221733 0.223673 0.225651 0.226904 0.228155 0.229397 0.230637 0.231838 0.232667 0.233496 0.234324 0.235146 0.235976 0.238013 0.240046 0.242063 0.244075 0.246129 0.246224 0.24632 0.246414 0.246508 0.246602 0.248519 0.250434 0.252345 0.254241 0.256169 0.256995 0.25782 0.258638 0.259455 0.260259 0.261415 0.26257 0.263724 0.264872 0.266027 0.267471 0.268914 0.270347 0.271779 0.273191 0.273692 0.274194 0.274696 0.275197 0.275698 0.277598 0.279498 0.281394 0.28329 0.285186 0.285275 0.285365 0.285454 0.285543 0.285633 0.287416 0.2892 0.290987 0.29278 0.294545 0.295196 0.295847 0.2965 0.297153 0.297817 0.298983 0.300149 0.301318 0.3025 0.303653 0.304944 0.306235 0.30754 0.308847 0.310246 0.310677 0.311108 0.31154 0.311981 0.312417 0.314095 0.315773 0.317479 0.319211 0.320837 0.321341 0.321846 0.322361 0.322875 0.323423 0.324496 0.325567 0.326636 0.327749 0.328818 0.330264 0.331703 0.333205 0.33472 0.336158 0.336587 0.337025 0.337474 0.337922 0.338419 0.339324 0.340226 0.341123 0.342036 0.342937 0.344137 0.345327 0.346571 0.347846 0.349062 0.350129 0.351206 0.3523 0.353385 0.354476 0.354963 0.355468 0.355971 0.356472 0.35708 0.357532 0.357983 0.358432 0.358879 0.359259 0.360196 0.361081 0.36196 0.362799 0.363514 0.36438 0.365221 0.366005 0.36666 0.3673 0.368079 0.368852 0.369523 0.3701 0.370672 0.371373 0.372052 0.37263 0.373163 0.373673 0.374302 0.374861 0.375378 0.375886 0.376341 0.376897 0.37736 0.377822 0.378282 0.378705 0.379168 0.379579 0.379989 0.380398 0.380795 0.381013 0.381214 0.381415 0.381616 0.381852 0.382008 0.382164 0.382319 0.382475 0.382583 0.382951 0.383274 0.383596 0.383917 0.384092 0.384509 0.384791 0.385073 0.385353 0.385409 0.385862 0.386107 0.386351 0.386594 0.386549 0.387024 0.387236 0.387446 0.387615 0.387524 0.387956 0.388194 0.388372 0.388454 0.388346 0.388738 0.388995 0.389143 0.38915 0.389027 0.389382 0.38965 0.389771 0.389714 0.389578 0.389896 0.390171 0.390267 0.390156 0.390007 0.390293 0.390569 0.390642 0.390484 0.390325 0.39058 0.390833 0.390879 0.39071 0.390542 0.390767 0.390992 0.391018 0.390841 0.390665 0.390863 0.391061 0.391069 0.390886 0.390703 0.390876 0.391049 0.39104 0.39085 0.390661 0.390811 0.39096 0.390936 0.390741 0.390546 0.390674 0.390801 0.390763 0.390563 0.390364 0.390471 0.390578 0.390527 0.390324 0.390121 0.390209 0.390297 0.390235 0.390029 0.389824 0.389894 0.389964 0.389892 0.389685 0.389477 0.389531 0.389585 0.389502 0.389295 0.389087 0.389126 0.389156 0.389066 0.388866 0.388657 0.388683 0.388691 0.388595 0.388402 0.388192 0.388205 0.388195 0.388092 0.387905 0.387695 0.387697 0.38767 0.387562 0.38738 0.387171 0.387161 0.387121 0.387008 0.386829 0.386621 0.386601 0.386548 0.386431 0.386256 0.386049 0.38602 0.385955 0.385834 0.385663 0.385457 0.385419 0.385344 0.38522 0.385052 0.384847 0.384802 0.384718 0.384591 0.384425 0.384222 0.38417 0.384079 0.383949 0.383786 0.383584 0.383526 0.383428 0.383296 0.383135 0.382935 0.382871 0.382767 0.382634 0.382474 0.382277 0.382207 0.382099 0.381964 0.381806 0.381611 0.381537 0.381424 0.381288 0.381132 0.380939 0.38086 0.380743 0.380606 0.380451 0.380261 0.380177 0.380057 0.379919 0.379766 0.379577 0.37949 0.379367 0.379228 0.379076 0.378889 0.378798 0.378673 0.378534 0.378382 0.378198 0.378104 0.377976 0.377837 0.377686 0.377504 0.377407 0.377278 0.377138 0.376988 0.376808 0.376708 0.376577 0.376437 0.376288 0.37611 0.376008 0.375876 0.375736 0.375588 0.375412 0.375307 0.375174 0.375034 0.374887 0.374713 0.374606 0.374473 0.374332 0.374186 0.374013 0.373905 0.373771 0.373631 0.373485 0.373314 0.373204 0.37307 0.37293 0.372784 0.372616 0.372505 0.37237 0.37223 0.372085 0.371919 0.371806 0.371671 0.371531 0.371387 0.371222 0.371108 0.370973 0.370833 0.37069 0.370526 0.37041 0.370275 0.370135 0.369992 0.369829 0.369713 0.369577 0.369437 0.369295 0.369134 0.369016 0.36888 0.368741 0.368599 0.368439 0.368321 0.368186 0.368047 0.367905 0.367748 0.367629 0.367494 0.367356 0.367215 0.367059 0.36694 0.366806 0.366669 0.366529 0.366375 0.366256 0.366122 0.365986 0.365848 0.365696 0.365577 0.365445 0.36531 0.365173 0.365023 0.364905 0.364774 0.364641 0.364506 0.364359 0.364242 0.364113 0.363982 0.363849 0.363706 0.36359 0.363464 0.363336 0.363206 0.363067 0.362953 0.362831 0.362707 0.362581 0.362447 0.362337 0.36222 0.362101 0.361981 0.361853 0.361749 0.361639 0.361527 0.361414 0.361297 0.3612 0.361099 0.360998 0.360896 0.36079 0.360705 0.360617 0.360529 0.360441 0.360352 0.360281 0.360212 0.360142 0.360073 0.360005 0.359954 0.35991 0.359866 0.359825 0.359789 0.35977 0.359761 0.359756 0.359755 0.359764 0.35979 0.359835 0.359888 0.359947 0.360025 0.360123 0.360245 0.360377 0.360519 0.360682 0.360873 0.361129 0.361421 0.361748 0.362131 0.362569 0.362996 0.363413 0.363804 0.364168 0.364648 0.365328 0.366326 0.367625 0.369055 0.370857 0.371826 0.371657 0.370884 0.369047 0.367696 0.366053 0.364365 0.362677 0.360764 0.359211 0.357793 0.356374 0.354956 0.353672 0.352662 0.351562 0.350462 0.349362 0.3482 0.347098 0.345882 0.344666 0.343451 0.342152 0.340832 0.339457 0.338083 0.336708 0.335297 0.333881 0.332437 0.330993 0.329549 0.328088 0.326597 0.325088 0.323578 0.322069 0.320552 0.319786 0.319013 0.318241 0.317468 0.315636