/*--------------------------------*- C++ -*----------------------------------*\
  =========                 |
  \\      /  F ield         | OpenFOAM: The Open Source CFD Toolbox
   \\    /   O peration     | Website:  https://openfoam.org
    \\  /    A nd           | Version:  7
     \\/     M anipulation  |
\*---------------------------------------------------------------------------*/
FoamFile
{
    version     2.0;
    format      ascii;
    class       surfaceScalarField;
    location    "2";
    object      alphaPhi0.water;
}
// * * * * * * * * * * * * * * * * * * * * * * * * * * * * * * * * * * * * * //

dimensions      [0 3 -1 0 0 0 0];

internalField   nonuniform List<scalar> 
11840
(
0
0
0
0
0
0
0
0
0
0
0
0
0
0
0
0
0
0
0
0
0
0
0
0
0
0
0
0
0
0
0
0
0
0
0
0
0
0
0
0
0
0
0
0
0
0
0
0
0
0
0
0
0
0
0
0
0
0
0
0
0
0
0
0
0
0
0
0
0
0
0
0
0
0
0
0
0
0
0
0
0
0
0
0
0
0
0
0
0
0
0
0
0
0
0
0
0
0
0
0
0
0
0
0
0
0
0
0
0
0
0
0
0
0
0
0
0
0
0
0
0
0
0
0
0
0
0
0
0
0
0
0
0
0
0
0
0
0
0
0
0
0
0
0
0
0
0
0
0
0
0
0
0
0
0
0
0
0
0
0
0
0
0
0
0
0
0
0
0
0
0
0
0
0
0
0
0
0
0
0
0
0
0
0
0
0
0
0
0
0
0
0
0
0
0
0
0
0
0
0
0
0
0
0
0
0
0
0
0
0
0
0
0
0
0
0
0
0
0
0
0
0
0
0
0
0
0
0
0
0
0
0
0
0
0
0
0
2.3287061327669e-203
-1.487352563201e-212
3.4046211048704e-203
1.7023105524352e-203
4.667388173876e-203
2.321544613554e-203
8.4989951944885e-204
3.8170130548105e-203
1.5452718535434e-204
6.9537233409451e-204
4.3996965650407e-189
0
3.3997655275315e-189
0
6.1813918682392e-190
2.7816263407076e-189
1.123889430589e-190
5.0575024376502e-190
2.0434353283436e-191
9.195458977546e-191
9.5068916345397e-192
0
3.4967877276471e-192
0
6.3577958684493e-193
2.8610081408021e-192
1.90390071155e-193
9.5195035577502e-194
5.6244240472122e-194
0
1.5504727069698e-194
0
4.0590548988165e-195
0
7.3800998160301e-196
3.3210449172135e-195
1.3418363301873e-196
6.0382634858428e-196
3.3748362399828e-197
0
8.2202660389069e-198
0
1.4945938252558e-198
6.725672213651e-198
3.5461983891207e-199
0
6.447633434765e-200
2.9014350456442e-199
1.4553105900913e-200
7.2765529504567e-201
2.6460192547121e-201
1.1907086646197e-200
6.042705507895e-202
0
1.3577682875004e-202
0
2.4686696136661e-203
1.1109013261119e-202
5.4695915426298e-204
0
9.9447118977417e-205
4.4751203510894e-204
2.1764359885975e-205
0
4.7118390322009e-206
0
8.5669801721397e-207
3.8551409013828e-206
1.8369146544877e-207
0
3.3398461715121e-208
1.5029287864776e-207
6.0724684546829e-209
2.7325777127312e-208
1.2908997705794e-209
0
2.3472579413603e-210
1.0559645594062e-209
4.9518399492381e-211
0
9.0203977786882e-212
4.0322765316393e-211
1.8910716500837e-212
0
3.7920313029653e-213
6.9659858784042e-213
7.7975028340942e-214
3.8987514170471e-214
1.5962226198902e-214
1.6703685539988e-214
3.3611653344104e-215
1.6805826672052e-215
7.3486842366816e-216
3.6743421183408e-216
1.7150441502949e-216
8.585938102828e-217
4.3852422423329e-217
2.1926211211664e-217
1.3580422184942e-217
0
4.2115693865442e-218
2.1057846932721e-218
1.5255243037064e-218
0
5.060579029769e-219
2.5302970919284e-219
1.8699876258302e-219
0
6.1502978628165e-220
3.0751493128084e-220
2.0000821306251e-220
1.0000410653126e-220
6.4229369557558e-221
3.2114685266896e-221
2.2370363334227e-221
0
7.6480831132656e-222
0
2.354364330641e-222
1.1771821653233e-222
7.8061037391532e-223
0
2.3469029773631e-223
1.1734514886843e-223
7.5711846169673e-224
0
2.2275141524778e-224
1.1137570762389e-224
6.8795145844149e-225
1.5932633152543e-226
2.0516574238997e-225
0
5.784765496197e-226
2.8923827480985e-226
1.6285963565702e-226
6.9216783940116e-227
4.5375908128388e-227
2.2687954064194e-227
1.2582149259286e-227
6.2362948528573e-228
3.4711472895991e-228
1.7355736447995e-228
9.5321523007121e-229
4.766076150356e-229
2.6062055627279e-229
1.3029260092295e-229
7.0961815893832e-230
3.5480907946917e-230
1.9246012541312e-230
9.6229387656815e-231
5.2005786809234e-231
2.6002893404617e-231
1.40037816965e-231
7.0018870498558e-232
3.7583811257029e-232
1.8791902850112e-232
1.0055129470993e-232
5.0275647354965e-233
2.6820421520885e-233
1.3410210663378e-233
4.852247939672e-234
0
0
0
0
0
0
0
0
0
0
0
0
0
0
0
0
0
0
0
0
0
0
0
0
0
0
0
0
0
0
0
0
0
0
0
0
0
0
1.0074441951898e-142
2.518610470304e-142
3.6969144304007e-139
1.8484572152004e-139
3.3652994998169e-139
3.3731892153563e-140
0
2.587297567971e-137
4.6432551367058e-118
0
8.6278795848559e-118
1.7678025805908e-118
1.7058640638875e-117
0
1.7058823170443e-117
0
4.4235197997356e-119
1.661647119047e-117
4.4230139952117e-119
0
2.9188999042298e-119
0
1.436692896725e-119
0
7.1368158742402e-120
0
2.1565380239016e-121
6.9211620718501e-120
1.8520027746905e-121
0
8.7263347090549e-122
0
2.4209813301898e-122
0
1.2260351992978e-122
0
3.6378754691277e-124
1.1896564446065e-122
2.0318378210447e-124
0
1.9940458540554e-125
0
1.9925163477353e-125
0
1.8635474611633e-126
0
1.8624045845594e-126
0
3.2804470485368e-128
1.829600114074e-126
1.928755635407e-128
0
1.066086013227e-128
0
6.9872275685741e-130
0
2.54943317501e-130
0
7.8216356100639e-131
0
1.706351755773e-131
0
8.798288485475e-132
0
5.2955339532712e-133
0
1.6003832374274e-133
0
1.0327749832112e-133
0
4.1808175247873e-134
0
4.8975555436578e-135
3.6910619704215e-134
2.0727930374295e-135
0
6.4547469770734e-137
2.0082455676588e-135
6.4500775201848e-137
0
1.3728788277794e-138
6.3127896374068e-137
1.371334973982e-138
0
5.7649497961421e-139
0
2.2680637323514e-140
5.538143422907e-139
1.8711088395002e-140
0
3.4020160718187e-141
1.5309072323184e-140
3.9694977489645e-142
3.0050662969222e-141
1.6569228740347e-142
0
5.1597707447321e-144
1.6053251665874e-142
5.1559479508733e-144
0
8.9113686594768e-146
5.0668342642786e-144
4.9413532983459e-146
0
2.5505673702029e-146
0
1.9649552422785e-147
0
1.9634657623184e-147
0
3.5699377496699e-148
1.6064719873514e-147
1.0474708534755e-149
3.4651906643224e-148
2.3951689113644e-150
0
2.393346539144e-150
0
1.0053372367283e-151
2.2928128154711e-150
8.2297036511814e-152
0
9.5476612211801e-153
7.2749375290633e-152
3.9046091496236e-153
0
1.1977453831714e-154
3.7848346113064e-153
1.050948821989e-154
0
4.0020288253669e-155
0
1.1607912653986e-155
0
3.8218619236674e-156
0
6.8967139924496e-157
3.1321905244225e-156
2.089196138606e-157
0
6.1563927586068e-158
0
1.1193072536619e-158
5.0370855049449e-158
3.2378140097661e-159
0
5.8868654024705e-160
2.6491274695191e-159
1.6742437788919e-160
0
4.6888374346099e-161
0
1.2947233259271e-161
0
3.5287144590978e-162
0
6.4158444333495e-163
2.8871300157629e-162
1.7274898360484e-163
0
0
0
0
0
0
0
0
0
0
0
0
0
0
0
0
0
0
0
0
0
0
0
0
0
0
0
0
0
0
0
0
0
0
0
0
-9.8806708212053e-82
-4.9403354106026e-82
-9.8806218241168e-81
-4.9403109120584e-81
-4.6871577411912e-80
-2.3435788705956e-80
-1.4341980757097e-79
-7.1709903785487e-80
-3.226402966143e-79
-1.6132014830715e-79
-5.7441697841062e-79
-2.8720848920531e-79
5.2110238984442e-65
2.7610643726755e-65
6.1250360798283e-66
4.8898875982847e-65
6.3856077138605e-65
1.5835454882006e-65
3.0471671307585e-64
2.1877788086231e-64
1.9614532896544e-63
1.3464715063487e-63
9.6008135822877e-63
6.6256273502814e-63
4.9678448917001e-62
3.2474924776716e-62
9.7749653321386e-60
5.1962420656675e-60
7.9411817659913e-59
5.2990664542402e-59
4.7072814513732e-58
3.0872883349957e-58
6.8994463216137e-57
3.9670349443621e-57
3.0812042372666e-56
2.0764103270322e-56
2.5463397752313e-55
1.4952123441127e-55
1.0807579059515e-54
7.6332154569853e-55
4.0215998201365e-54
2.8265066513389e-54
1.9532579026192e-53
1.2699635170796e-53
6.1088084842392e-53
4.4559045339774e-53
2.0524695368131e-52
1.3536794573602e-52
6.8444961702444e-52
4.5460962810003e-52
1.7349678243779e-51
1.3782920140949e-51
3.1682410039354e-51
2.6097913973001e-51
5.9978910851954e-51
4.6034141639462e-51
1.0832378898247e-50
6.6873736355952e-51
2.1342972749647e-50
1.2433708034146e-50
7.7789358822259e-50
4.94120344713e-50
1.3090112042904e-49
1.1087312462952e-49
1.4729736222266e-49
1.4082890066474e-49
1.4910387700566e-49
1.5747083851078e-49
1.3406026699054e-49
1.3843251815197e-49
1.1673423191779e-49
1.2330806455034e-49
1.0675439147527e-49
1.128181486681e-49
8.6477620973971e-50
1.0032440176397e-49
5.7651990909065e-50
7.3009576184541e-50
2.7193482894113e-50
4.0704425580913e-50
6.5233776271097e-51
1.5545501194257e-50
1.0926428279162e-51
3.2655347089372e-51
1.7450408453074e-52
8.2749033993895e-52
3.1893527477875e-53
1.3611185769357e-52
8.0250264230987e-54
2.0848589065449e-53
1.2938985048531e-54
6.4648520603165e-54
3.3299723970244e-55
8.365591939956e-55
6.1599972106802e-56
2.6042718016173e-55
9.9040595494693e-57
4.9893627995921e-56
2.4865321276115e-57
6.448815333981e-57
3.9823144528006e-58
2.0053191207489e-57
1.0270039153951e-58
2.57401809758e-58
1.8997233959015e-59
8.0294876149156e-59
3.0708805404367e-60
1.5367276602084e-59
7.2442106015603e-61
2.0208078571456e-60
1.4081059985572e-61
5.3296689257877e-61
3.4901621348113e-62
8.9676850124181e-62
6.4331569110589e-63
2.7225198675701e-62
1.0223765942835e-63
5.2150460504523e-63
2.654633189395e-64
6.605195870908e-64
4.9672637131185e-65
2.0682626785405e-64
9.5016282328926e-66
3.9096517568865e-65
1.7571425571629e-66
7.4675098514991e-66
2.6968033073112e-67
1.4329418768238e-66
5.4472816243009e-68
2.0506920253697e-67
1.3359343867969e-68
3.545252018233e-68
3.1930730320192e-69
8.3429958143347e-69
7.461172161674e-70
1.965062215465e-69
1.6937346830927e-70
4.5720849074151e-70
3.1082558550257e-71
1.310679933682e-70
4.9338398491616e-72
2.5135792591302e-71
1.1955237709447e-72
3.2138169228062e-72
2.7575860877239e-73
7.4843934731795e-73
4.1516301254634e-74
2.2263975825576e-73
8.361637877696e-75
3.1416537499037e-74
2.0197276799107e-75
5.4340360388154e-75
4.6422241362751e-76
1.263684732228e-75
9.6362649767503e-77
3.0272987713503e-76
2.2057681733903e-77
5.935441238671e-77
3.4932279258506e-78
1.7608619105122e-77
8.0673586272354e-79
2.2656152768048e-78
2.1481764344826e-79
4.8814356826063e-79
1.6491240544494e-79
0
0
0
0
0
0
0
0
0
0
0
0
0
0
0
0
0
0
8.0278147507009e-55
4.0477279278053e-55
4.5850011580297e-53
2.4352436274571e-53
4.7794122105322e-52
2.5756681796084e-52
8.1748891592072e-51
4.3716407789446e-51
1.0178768621087e-49
5.6114695088386e-50
8.6153881027189e-49
5.4930660321815e-49
1.4593012785933e-48
1.4762214046781e-48
1.7574161132584e-49
1.1358180912008e-48
1.3800602011491e-47
1.2480314447893e-47
2.4486134948811e-48
1.135198839159e-47
4.562181962749e-49
1.9923952986062e-48
8.2948535174317e-50
3.7326966110058e-49
1.5176394549144e-50
6.7772140625173e-50
2.8387274584611e-47
0
5.1616599664437e-48
2.3225614618168e-47
9.3848349229678e-49
4.2231764741469e-48
1.7063338637766e-49
7.6785010591912e-49
3.1024252234518e-50
1.3960913414314e-49
5.6407731345618e-51
2.538347909996e-50
1.0255951153792e-51
4.6151780192002e-51
1.8647183982797e-52
8.3912327564034e-52
4.5459869360026e-49
0
8.2654307998738e-50
3.7194438579157e-49
1.5028056268606e-50
6.7626252575502e-50
1.5667619017374e-48
0
2.8491766680693e-49
1.281844305461e-48
1.2457907948859e-43
0
1.245889896323e-43
0
4.5492733862386e-45
1.200397162487e-43
4.6450098065598e-45
0
1.4848597703472e-46
4.4965239686938e-45
9.5332947945263e-47
0
5.081837661017e-48
0
5.0774276729558e-48
0
4.6407746296167e-49
4.6180530777488e-48
1.7319509575145e-48
0
1.6142640058221e-49
6.7241593148465e-49
5.9007081292649e-49
1.3733248705501e-48
7.3223653583881e-49
8.4795935607516e-50
9.7196035651464e-48
0
2.312120409344e-47
0
1.491980593251e-47
8.5265905050087e-48
6.0043256333934e-48
0
1.2136686101444e-48
5.0274072075815e-48
6.304866647497e-48
0
6.4784797156866e-48
0
1.2451223400279e-48
5.3531689152229e-48
1.1922010841065e-48
0
2.0439249177756e-49
9.9971345854108e-49
1.7056720605636e-49
0
4.6758099632469e-51
1.6650255122848e-49
4.7703567315528e-51
0
3.6366497223448e-51
0
5.6220153337383e-52
3.079218181667e-51
4.0904597732062e-52
0
7.4495646436951e-53
3.3474161118399e-52
1.1208248413226e-53
6.3324315583337e-53
7.8681463071088e-54
0
1.1386408380733e-54
6.730974090605e-54
7.9914819477933e-55
0
3.4763311529013e-56
7.6444341444327e-55
3.4774599132866e-56
0
4.9347336096957e-57
0
4.9332753689909e-57
0
3.1829508205122e-57
0
5.4468601982991e-58
2.6382844058392e-57
9.9036799842878e-59
4.4565301621626e-58
1.7968853395767e-59
0
1.796359357272e-59
0
5.9419444911683e-61
1.7369427623885e-59
5.9402098113871e-61
0
2.4209376681505e-62
5.6981264294861e-61
2.2448493226491e-62
0
6.1968514347022e-63
0
2.4199946031946e-63
0
2.0243145439481e-63
0
3.1308631890213e-64
0
3.1298042185508e-64
0
5.9183706119177e-66
3.0706206906871e-64
4.1729972693432e-66
0
3.071950906464e-66
0
1.225536134291e-67
2.9493974470123e-66
1.1231499740098e-67
0
2.7598617431611e-68
0
1.0654029621057e-68
0
9.8826272707828e-69
0
1.5571154536939e-69
0
1.5566075206356e-69
0
1.8534022377029e-70
0
1.4970925124163e-70
0
0
0
0
0
0
0
0
0
0
0
0
0
0
0
0
2.3329479283331e-45
1.1681363522547e-45
2.0548951698915e-43
1.0384091486112e-43
8.8435091316294e-42
4.5164259070535e-42
2.4743290363037e-40
1.2782420133325e-40
5.0814550444329e-39
2.6571185344581e-39
8.164036460474e-38
4.3253138095408e-38
1.0564018498386e-36
5.679394133517e-37
1.1204178183744e-35
6.1180527031284e-36
1.0075669149692e-34
5.5769348455644e-35
8.1622206723711e-34
4.555305474271e-34
6.3277109303006e-33
3.5430696652081e-33
4.8025190827454e-32
2.695405339206e-32
3.5095572353218e-31
1.9800069114101e-31
2.3989114841717e-30
1.3658912914834e-30
1.4989890375676e-29
8.644493121891e-30
8.4507242901568e-29
4.9501721781379e-29
4.2744583688912e-28
2.5489364576266e-28
1.9378003162029e-27
1.1783998806662e-27
7.8834372557333e-27
4.8957840069162e-27
2.884498588343e-26
1.8316219810262e-26
9.5174811037311e-26
6.1862623054799e-26
2.8400587750662e-25
1.8914886301417e-25
7.6891019795502e-25
5.2514642861236e-25
1.8956477050461e-24
1.3284579493893e-24
4.2739757596999e-24
3.0742094935355e-24
8.8560065153448e-24
6.5378420384745e-24
1.6954828043437e-23
1.2842798388124e-23
3.0145354495431e-23
2.342212843614e-23
4.9962077841552e-23
3.9825817618186e-23
7.7212918987847e-23
6.3252058308204e-23
1.1039116871098e-22
9.3509706145857e-23
1.4205044118451e-22
1.2658615289606e-22
1.5815080751273e-22
1.5113061775456e-22
1.5976777999183e-22
1.5825015756443e-22
1.5790352857712e-22
1.5721564021529e-22
1.4849119861067e-22
1.5132691341977e-22
1.2800654585105e-22
1.3624945722721e-22
9.7938994695394e-23
1.1109314723171e-22
6.406116355117e-23
7.9300994758593e-23
3.4478945723973e-23
4.786303567931e-23
1.4808852490907e-23
2.3647526403049e-23
5.0911499067298e-24
9.4244005970569e-24
1.4888383197284e-24
3.1078712262657e-24
4.0799872193536e-25
9.0882352885745e-25
1.1263588583741e-25
2.547316366834e-25
3.2106891746029e-26
7.1835232092895e-26
9.4352866611317e-27
2.0730576719348e-26
2.8402297248953e-27
6.1312178277624e-27
8.7154542473638e-28
1.8533096537201e-27
2.7138073272662e-28
5.7042270255723e-28
8.5221436134583e-29
1.7786487983754e-28
2.6786163981942e-29
5.5809400697515e-29
8.3649943975717e-30
1.7491025529203e-29
2.5813768048224e-30
5.4395484534439e-30
7.8503025304141e-31
1.6711848097421e-30
2.351950158637e-31
5.0622155814687e-31
6.9492696787195e-32
1.5117716221746e-31
2.0279148706165e-32
4.4553115381509e-32
5.8519289685664e-33
1.2972965948012e-32
1.6713629101132e-33
3.7361226079491e-33
4.7275495859426e-34
1.0650397455057e-33
1.3250010872061e-34
3.0070325663116e-34
3.6814575078599e-35
8.4132892699139e-35
1.014500390227e-35
2.3337940752489e-35
2.7740300065119e-36
6.4214506729192e-36
7.5297458951746e-37
1.7533597495528e-36
2.0296780744579e-37
4.7528583063474e-37
5.4350540161505e-38
1.2795226268939e-37
1.4462708802262e-38
3.4221538719381e-38
3.8255399544601e-39
9.0959168499442e-39
1.0061247433256e-39
2.4033393610756e-39
2.631703202134e-40
6.3142565481859e-40
6.8477843396764e-41
1.6499704041264e-40
1.7729080671989e-41
4.2892112106786e-41
4.5680799019598e-42
1.1094801896365e-41
1.1715880703411e-42
2.8562066065336e-42
2.991486377068e-43
7.319289835293e-43
7.6057514273827e-44
1.867383727608e-43
1.925785591217e-44
4.7441097829287e-44
4.8567757210419e-45
1.2003261596895e-44
1.2201755640331e-45
3.0250322961548e-45
3.0541274333497e-46
7.5946208591755e-46
7.6172070723045e-47
1.8996922863564e-46
1.8932084758294e-47
4.7349360467248e-47
4.6896751250984e-48
1.1761112741604e-47
1.1579076787949e-48
2.9116097588949e-48
2.8499249100825e-49
7.184779768282e-49
6.9931697617566e-50
1.7673684613997e-49
1.7104863450466e-50
4.3346758573236e-50
4.1809898440932e-51
1.0591157469414e-50
9.9794865918373e-52
2.6002668210585e-51
2.8476778303187e-52
5.9087218303649e-52
2.270246334055e-52
0
0
0
0
0
0
0
0
0
0
0
0
2.1226567026268e-45
1.0587398441823e-45
2.7620061707721e-43
1.3773689094085e-43
1.6094750117916e-41
8.0620305818047e-42
5.838722503476e-40
2.9454914943184e-40
1.505472708509e-38
7.6625539255338e-39
2.9754039949751e-37
1.5299317203866e-37
4.7153935308426e-36
2.4527261920028e-36
6.1347016762079e-35
3.2327946026064e-35
6.6734051646192e-34
3.5675613802983e-34
6.1779106325374e-33
3.3540556147087e-33
4.9303775720367e-32
2.7163694367597e-32
3.5203931448276e-31
1.957545087e-31
2.4080561268022e-30
1.3410464876208e-30
1.6376380050969e-29
9.112988101864e-30
1.0809965011753e-28
6.0426565536017e-29
6.7106531602682e-28
3.7902272861679e-28
3.8499985013843e-27
2.2041584134121e-27
2.0162893795621e-26
1.1731908640785e-26
9.5430036581933e-26
5.6593708840768e-26
4.0541070000165e-25
2.4569837753006e-25
1.5402776547334e-24
9.5614536839126e-25
5.227299421009e-24
3.330010241492e-24
1.5857084336211e-23
1.0382172969578e-23
4.3102107511131e-23
2.9032866914474e-23
1.054563414119e-22
7.3095825099901e-23
2.3387305421748e-22
1.6668720115698e-22
4.7451712669072e-22
3.4715681879726e-22
8.8997196399521e-22
6.6686480079644e-22
1.5571084596789e-21
1.1928878417814e-21
2.555661504025e-21
2.0011704101279e-21
3.9359353745145e-21
3.1569888934739e-21
5.6415565274151e-21
4.6662250945084e-21
7.3325699515193e-21
6.3591201903892e-21
8.2909014024439e-21
7.7037854540056e-21
8.4175684585323e-21
8.1657850430988e-21
8.35413139643e-21
8.1401926417753e-21
7.9166750867735e-21
7.8808888227546e-21
6.9187340913422e-21
7.1744913765777e-21
5.3925721345915e-21
5.9427693215814e-21
3.6174333455564e-21
4.3337539829069e-21
2.0147566812737e-21
2.6916508059172e-21
9.0516147465564e-22
1.3811154435165e-21
3.2819867640145e-22
5.769044881167e-22
1.0115664279219e-22
2.0026978579599e-22
2.8952347044718e-23
6.1431095480817e-23
8.2763041113177e-24
1.7924571607233e-23
2.4361217533625e-24
5.2346120241225e-24
7.4067325061559e-25
1.5630622775852e-24
2.3150956816592e-25
4.793705969494e-25
7.3995732423618e-26
1.5071915408205e-25
2.4034473696288e-26
4.836492186441e-26
7.8690509791668e-27
1.5734309114963e-26
2.5729641556031e-27
5.1453317830166e-27
8.3304078958748e-28
1.6762885536301e-27
2.6547434060243e-28
5.400048049549e-28
8.3045894670626e-29
1.7118894878869e-28
2.5501979101672e-29
5.3304841090901e-29
7.7003257177081e-30
1.6308961665531e-29
2.2910488720898e-30
4.9104678456633e-30
6.7287978558801e-31
1.4576017314102e-30
1.953388743538e-31
4.272170183283e-31
5.6102347751809e-32
1.2378259840275e-31
1.5951768631261e-32
3.548517465101e-32
4.4928952760753e-33
1.0071830886103e-32
1.2542181633674e-33
2.8320764176849e-33
3.4719820163462e-34
7.8936557118231e-34
9.5356795741427e-35
2.1819925899711e-34
2.5994922457565e-35
5.9846295937623e-35
7.0365854322715e-36
1.6293642095603e-35
1.8920353462527e-36
4.4052044121648e-36
5.0551471153641e-37
1.1831381853177e-36
1.3424784344932e-37
3.157676287168e-37
3.5446323636259e-38
8.3770708921395e-38
9.307597536239e-39
2.2096770029426e-38
2.4311419850748e-39
5.7967944252786e-39
6.3180880652447e-40
1.5127661598473e-39
1.6340042308834e-40
3.9280358542954e-40
4.2062613367643e-41
1.0150493102865e-40
1.0779355699005e-41
2.6108938959749e-41
2.7505257633273e-42
6.6858803657945e-42
6.9892940892739e-43
1.7047757585373e-42
1.7689263266667e-43
4.3289513086538e-43
4.4596968978881e-44
1.0948845305178e-43
1.1201519514194e-44
2.7585684431953e-44
2.8033553543564e-45
6.9244492251936e-45
6.9913270374612e-46
1.7319118143935e-45
1.7376783513778e-46
4.3167356070776e-46
4.3047858038419e-47
1.0723144648447e-46
1.0630689575387e-47
2.6550109564407e-47
2.6165231942687e-48
6.5534969868804e-48
6.4351262495701e-49
1.6113277445875e-48
1.5451277853929e-49
3.9806516505535e-49
4.4388574725976e-50
9.0959845294975e-50
3.5242953119577e-50
0
0
0
0
0
0
0
0
0
0
9.510556869864e-46
4.7159228146377e-46
1.6915382627035e-43
8.3540633755942e-44
1.2765993672437e-41
6.3042995900703e-42
5.7649741830373e-40
2.8552493915974e-40
1.8100061277255e-38
9.010058766239e-39
4.284745521419e-37
2.1474512823046e-37
8.0521435534112e-36
4.0689411761856e-36
1.2420339439491e-34
6.3374185060913e-35
1.6026308368401e-33
8.2694480868087e-34
1.7595901908227e-32
9.1961566841919e-33
1.6598686261011e-31
8.8010735070361e-32
1.3540147022362e-30
7.2917816851465e-31
9.7054636061971e-30
5.3083665000176e-30
6.2207752563535e-29
3.4381257628363e-29
3.7968595401336e-28
2.0931449323298e-28
2.4541638899464e-27
1.3389837694891e-27
1.6192261364768e-26
8.8516322833445e-27
9.8701486224041e-26
5.5117365710386e-26
5.4344391001429e-25
3.1138872538087e-25
2.7195762597473e-24
1.5933020228968e-24
1.2310014620013e-23
7.3742280485976e-24
4.9858799799588e-23
3.0614604613307e-23
1.7873999694854e-22
1.1288242921955e-22
5.6227747582803e-22
3.6660984253346e-22
1.543324379838e-21
1.042704041248e-21
3.6883752582812e-21
2.5898021803045e-21
7.7101049495878e-21
5.6296941444931e-21
1.4301362089725e-20
1.0820746652577e-20
2.4130655192687e-20
1.876338336674e-20
3.8192403720461e-20
3.0189974160247e-20
5.8264402721647e-20
4.6391353618153e-20
8.6796156726066e-20
6.9391661276183e-20
1.2518688007295e-19
1.011393205158e-19
1.6893442630796e-19
1.4068331930199e-19
2.0112476186378e-19
1.7839006797744e-19
2.0868120149718e-19
1.9688102308878e-19
2.0885456419601e-19
1.9851525824732e-19
2.0010099011975e-19
1.938623081297e-19
1.7862811208583e-19
1.7954235303646e-19
1.4242061040819e-19
1.5186082229147e-19
9.8163050718361e-20
1.1350747374395e-19
5.6491896429417e-20
7.2577322305205e-20
2.6423038210642e-20
3.8572100464058e-20
1.004319752705e-20
1.6802937169844e-20
3.2502566201403e-21
6.1110896011432e-21
9.7218164519135e-22
1.9627071816683e-21
2.8875456409214e-22
5.9710118926495e-22
8.8114197178474e-23
1.8117772874494e-22
2.7808935813537e-23
5.6177490552092e-23
9.0476051732173e-24
1.7920528195851e-23
3.0171722242859e-24
5.8743858053928e-24
1.0234302456741e-24
1.9686005891668e-24
3.4967606550982e-25
6.6898574092927e-25
1.1906877775105e-25
2.2824298118319e-25
4.0026165454972e-26
7.7394993746693e-26
1.3196401787487e-26
2.586776522712e-26
4.2543387596965e-27
8.4770619406215e-27
1.341289494171e-27
2.7182335953951e-27
4.1440142706838e-28
8.5332455383791e-28
1.2581061071278e-28
2.6278400708467e-28
3.7627007504881e-29
7.957889214263e-29
1.1106798851852e-29
2.374968664191e-29
3.239999949973e-30
6.9968609513121e-30
9.3487944966794e-31
2.0372912286835e-30
2.670077553792e-31
5.8680070138261e-31
7.5530192020508e-32
1.6731204905534e-31
2.1173931488008e-32
4.725414229076e-32
5.8858093195717e-33
1.3227694442366e-32
1.6231301575815e-33
3.6719350599086e-33
4.4426219811254e-34
1.0113126883492e-33
1.2073697392552e-34
2.7646949496052e-34
3.2592311222951e-35
7.5050385572617e-35
8.7419622323349e-36
2.0237603545953e-35
2.3305290723318e-36
5.4226118242609e-36
6.1769531134877e-37
1.4442162566739e-36
1.6281002094977e-37
3.8242896754704e-37
4.2685400702823e-38
1.00710653305e-37
1.1134371898231e-38
2.6382079711397e-38
2.8902146454985e-39
6.876177154357e-39
7.467172979113e-40
1.7835209812494e-39
1.92053501316e-40
4.6045289054413e-40
4.9181442779889e-41
1.1834371887842e-40
1.2541857005279e-41
3.0285203949063e-41
3.1854317697666e-42
7.7180717830452e-42
8.0590000997091e-43
1.959042086609e-42
2.0312220791578e-43
4.953306633469e-43
5.1009469984214e-44
1.2477269638899e-43
1.2764750064824e-44
3.1316266395939e-44
3.1833814137788e-45
7.8324431612044e-45
7.9129384949858e-46
1.9522904066833e-45
1.9601394415263e-46
4.8506442786003e-46
4.8513197232601e-47
1.2003373548496e-46
1.1719470359607e-47
2.9842782510832e-47
3.3901645358938e-48
6.8581199252204e-48
2.6803376936797e-48
0
0
0
0
0
0
0
0
0
0
4.3001958580653e-44
2.087165566369e-44
5.416866850845e-42
2.6304195006561e-42
3.2746796529834e-40
1.593313376857e-40
1.2716445883442e-38
6.2084341221141e-39
3.5860658219591e-37
1.758973046374e-37
7.8600990949658e-36
3.8777606860554e-36
1.3985580426989e-34
6.9471125063111e-35
2.0795669322966e-33
1.0413347324034e-33
2.6291271580581e-32
1.3289287826272e-32
2.8708689847168e-31
1.4671116639675e-31
2.7228995628181e-30
1.4092978109743e-30
2.258540342321e-29
1.1856367489597e-29
1.6543554059356e-28
8.8290819183113e-29
1.0592000692675e-27
5.7442785503179e-28
6.180223094899e-27
3.3853126813463e-27
3.4854542824567e-26
1.8882770226656e-26
2.2281236408405e-25
1.1709309390076e-25
1.8179407494671e-24
9.439693562151e-25
1.6055498324894e-23
8.4692621990006e-24
1.1620944936927e-22
6.4057330356495e-23
6.7973605020239e-22
3.9094420147688e-22
3.2985396784444e-21
1.9694232810516e-21
1.3422296785266e-20
8.3160688374557e-21
4.5882891323537e-20
2.9601882939075e-20
1.3099366238571e-19
8.8394014136555e-20
3.1234122087878e-19
2.2230664668767e-19
6.0386191054753e-19
4.6175769622367e-19
9.1374741719153e-19
7.6284447718047e-19
1.1259811501803e-18
1.006907201947e-18
1.2624280699657e-18
1.1583857353691e-18
1.4011569287908e-18
1.2796270223865e-18
1.6143448520655e-18
1.4355847208441e-18
1.9622554120988e-18
1.6858677098253e-18
2.46866721499e-18
2.0761769626802e-18
3.0084992853156e-18
2.5706338911764e-18
3.2602938255992e-18
2.9542086359162e-18
3.276702236866e-18
3.0425391726478e-18
3.1967404952786e-18
3.0032369121235e-18
2.918141848139e-18
2.8336894025503e-18
2.3874363447421e-18
2.4542439704791e-18
1.6918381876414e-18
1.8832542605221e-18
1.0035671185268e-18
1.2387026692006e-18
4.8629657721092e-19
6.7963264877934e-19
1.9274869542022e-19
3.0733064500228e-19
6.5338418199967e-20
1.166729215466e-19
2.0460289707082e-20
3.9213817847103e-20
6.3419021410048e-21
1.2471458765424e-20
2.0157913964623e-21
3.9485675840849e-21
6.6303646053765e-22
1.2769213610395e-21
2.2522743947923e-22
4.2529466964563e-22
7.8533507694885e-23
1.4577860102177e-22
2.7859947636906e-23
5.1125401632314e-23
9.9447759111517e-24
1.8175476355388e-23
3.5307463548913e-24
6.4777858389972e-24
1.234277731254e-24
2.2894626505884e-24
4.2185271356629e-25
7.9533698550397e-25
1.4047701034779e-25
2.7000349553152e-25
4.5569742021407e-26
8.9357390576671e-26
1.4431811156719e-26
2.8841139086945e-26
4.4767004912515e-27
9.0991513784504e-27
1.3645995801661e-27
2.8145384734663e-27
4.0982320535837e-28
8.5602220525529e-28
1.2148424653309e-28
2.5658487617144e-28
3.558730142963e-29
7.592020969401e-29
1.0310736315538e-29
2.2200478778697e-29
2.95670309219e-30
6.4212618475522e-30
8.397107951472e-31
1.8384269526548e-30
2.3633091167218e-31
5.2134506174995e-31
6.5951448798283e-32
1.4652751014113e-31
1.8258328874072e-32
4.0838193969093e-32
5.0167985017984e-33
1.1292277307842e-32
1.3686640780086e-33
3.0992457739429e-33
3.7087753093947e-34
8.4462242307195e-34
9.985562667567e-35
2.2864296570618e-34
2.672119128893e-35
6.1501345224956e-35
7.1089028920714e-36
1.6442730089934e-35
1.8807260891308e-36
4.3706526323989e-36
4.949130579804e-37
1.155348126671e-36
1.2957143106571e-37
3.0379209017402e-37
3.3756416824968e-38
7.947534774439e-38
8.752936886634e-39
2.0690426778527e-38
2.2593302046657e-39
5.3613002511464e-39
5.8064024476821e-40
1.3829665064476e-39
1.4859512495646e-40
3.551945432326e-40
3.7873575780231e-41
9.0845148857941e-41
9.615301134661e-42
2.3140975776052e-41
2.4318752945541e-42
5.871728376878e-42
6.1280949776027e-43
1.484263480611e-42
1.5387390613592e-43
3.738269190459e-43
3.8505283124545e-44
9.3818922441103e-44
9.6010914185718e-45
2.3467208989588e-44
2.391651270178e-45
5.8455317860901e-45
5.8135999005722e-46
1.4628236622524e-45
1.6937205853529e-46
3.3812175193594e-46
1.3333217045815e-46
0
0
0
0
0
0
0
0
1.5370150758606e-56
4.3780594677317e-57
9.3310145125787e-43
4.4243562786654e-43
1.0213093215648e-40
4.8589030846241e-41
5.5095942757504e-39
2.6315501845989e-39
1.9507953129209e-37
9.3604284854245e-38
5.0999803621989e-36
2.4598797408496e-36
1.0502874805241e-34
5.095228684319e-35
1.7762102887057e-33
8.6717022628877e-34
2.5372700987619e-32
1.247482476953e-32
3.1178011337256e-31
1.545115452783e-31
3.3466865194459e-30
1.6738217751934e-30
3.1549611678001e-29
1.5950232362387e-29
2.6307525284505e-28
1.3465041513267e-28
1.9521499954629e-27
1.0141435754737e-27
1.2737717192285e-26
6.7244058284148e-27
7.497049151889e-26
4.0346611432117e-26
3.8846374886344e-25
2.0993587000396e-25
2.188402630105e-24
1.1349029472934e-24
1.8755188593592e-23
9.2821453767565e-24
1.7609922532128e-22
8.5931336141219e-23
1.9488466665666e-21
9.693545733215e-22
1.8545553656524e-20
9.6176197267616e-21
1.3014806707531e-19
7.0995906164227e-20
6.8102382605367e-19
3.9217140052015e-19
2.7477815380456e-18
1.6694025284717e-18
8.5861145645255e-18
5.5536887042547e-18
2.0569945654877e-17
1.4404964090731e-17
3.6417388639437e-17
2.8572885740838e-17
4.5276184420744e-17
4.1173429353067e-17
4.6021452637289e-17
4.450362144089e-17
4.401241613016e-17
4.3338298964786e-17
3.7247945305918e-17
3.870068756825e-17
2.9395972366366e-17
3.0598036543651e-17
2.8141728326158e-17
2.6486971449278e-17
2.9140707799125e-17
2.6513333143464e-17
3.2458799551407e-17
2.8310153901784e-17
3.5894543655592e-17
3.1453373901866e-17
3.6481299673946e-17
3.3037959891984e-17
3.609092905704e-17
3.2855587352785e-17
3.3597860837066e-17
3.1481123844496e-17
2.8156953369954e-17
2.7853596744754e-17
2.0485217237411e-17
2.1906919901156e-17
1.2507761141241e-17
1.4804927103541e-17
6.2707309938447e-18
8.3771327247008e-18
2.5901447727551e-18
3.9294335670236e-18
9.2039539512019e-19
1.5572875585856e-18
3.0252626276643e-19
5.4857236842271e-19
9.8239446421712e-20
1.8294395950693e-19
3.2664136441535e-20
6.0679195518572e-20
1.1241698986048e-20
2.0552432476953e-20
3.9999141188323e-21
7.1745972301352e-21
1.461713818039e-21
2.5794901488435e-21
5.4316788345772e-22
9.4883038981231e-22
2.0280616422818e-22
3.5343749154878e-22
7.5177041453841e-23
1.3176970284575e-22
2.7381644949445e-23
4.8622123571967e-23
9.7262993897064e-24
1.7594573471364e-23
3.3554058060538e-24
6.2045623100775e-24
1.1232732861301e-24
2.1255990313008e-24
3.6558855256614e-25
7.0737161673498e-25