/*--------------------------------*- C++ -*----------------------------------*\
  =========                 |
  \\      /  F ield         | OpenFOAM: The Open Source CFD Toolbox
   \\    /   O peration     | Website:  https://openfoam.org
    \\  /    A nd           | Version:  7
     \\/     M anipulation  |
\*---------------------------------------------------------------------------*/
FoamFile
{
    version     2.0;
    format      ascii;
    class       volScalarField;
    location    "2";
    object      alpha.water;
}
// * * * * * * * * * * * * * * * * * * * * * * * * * * * * * * * * * * * * * //

dimensions      [0 0 0 0 0 0 0];

internalField   nonuniform List<scalar> 
6000
(
0
0
0
0
0
0
0
0
0
0
0
0
0
0
0
0
0
0
0
0
0
0
0
0
0
0
0
0
0
0
0
0
0
0
0
0
0
0
0
0
0
0
0
0
0
0
0
0
0
0
0
0
0
0
0
0
0
0
0
0
0
0
0
0
0
0
0
0
0
0
0
0
0
0
0
0
0
0
0
0
0
0
0
0
0
0
0
0
0
0
0
0
0
0
0
0
0
0
0
0
0
0
0
0
0
0
0
0
0
0
0
0
0
0
0
0
0
0
0
5.2395887994691e-201
6.8092422097408e-201
9.3408510844441e-201
3.7673913546192e-204
0
9.8993172713417e-187
7.6494724369459e-187
-7.897335724813e-263
-8.9941535594617e-295
0
2.1390506177714e-189
7.8677723872059e-190
0
3.8078014231001e-191
1.2654954106228e-191
3.4885635906822e-192
9.1328735223371e-193
0
-4.8667944097157e-210
7.5933815399614e-195
1.849559858754e-195
6.4637113254316e-211
7.9789463755216e-197
2.8635191718924e-211
2.9106211801827e-198
3.5385552005634e-211
1.3596087392764e-199
3.0549786468758e-200
1.890726881483e-211
1.2306580970917e-201
1.4471459831309e-211
4.8969809743444e-203
1.0601637822452e-203
8.8039990968786e-212
4.1330579725974e-205
9.9535139366022e-212
1.6545938015255e-211
2.9045244838036e-207
1.5075710294034e-211
1.1141639885786e-208
1.345123438516e-211
4.2549112126884e-210
5.0490774924699e-211
1.5595005668188e-211
2.7563166177535e-212
6.7223306688208e-213
1.4697368473363e-213
3.4295524330222e-214
8.7704844846658e-215
3.0555949916119e-215
8.4231387730884e-216
3.4324296833395e-216
1.0121154271016e-216
4.207472158118e-217
1.2300595534933e-217
4.0001642612503e-218
1.2845873887106e-218
5.033331750201e-219
1.7208187004848e-219
4.7087286612807e-220
1.7563733413095e-220
4.6938059547249e-221
1.7035165388176e-221
4.4550283049556e-222
1.5399244649171e-222
4.6162292037743e-223
1.1569530992394e-223
3.3182578825824e-224
9.0751816256776e-225
2.5191688406965e-225
6.9422945791981e-226
1.9064304601424e-226
5.212499511523e-227
1.4192363178766e-227
3.8492058835111e-228
1.0401157361847e-228
2.8007565292198e-229
7.5167623903259e-230
2.0110258941986e-230
5.3640843090302e-231
1.9408991758688e-231
0
0
0
0
0
0
0
0
0
0
0
0
0
0
0
0
0
0
0
1.0074442040251e-140
7.3938288608014e-137
3.9448577697131e-140
1.2949941148139e-134
5.4423768787514e-116
1.8583660323897e-115
3.4923492961573e-115
3.618996399047e-115
0
5.7054401252642e-120
6.345201071408e-117
4.6697423708999e-117
1.3373524451098e-117
0
6.3941225097214e-120
1.8458798229954e-119
1.1018457454583e-119
1.671355704949e-120
-2.0993362836148e-138
2.3961355073814e-122
2.5683681757338e-122
2.1867557805294e-126
2.4073464640125e-123
1.5232909292321e-127
0
1.7497960407317e-126
1.1018395681296e-126
1.2305372712385e-126
5.2261488808122e-128
2.0645726610355e-128
6.9811867586417e-129
9.0630502933972e-130
9.1753119692351e-130
3.9439670349874e-131
6.0255903803173e-132
6.5945832961807e-132
-1.5274681817498e-149
2.9765141456384e-133
0
4.9203159724931e-138
0
1.6267845474621e-139
8.2324070590657e-137
0
4.1144938936802e-139
0
0
2.3520518162008e-140
0
3.8880561860265e-145
0
4.0208365515473e-144
2.3839712207881e-144
2.3134811368316e-144
1.4637996956752e-148
0
0
7.780372060831e-148
1.7811157396439e-151
6.8969420121429e-165
1.7858235883996e-150
0
5.4460244727673e-151
0
5.8698467803501e-153
7.7795531108394e-153
2.8128277198709e-153
8.0590053870415e-154
1.3243317362084e-170
4.6724506187803e-155
1.385584326814e-155
0
7.2848427470379e-157
-1.0091764587184e-171
3.7670340824944e-158
1.0549884372005e-158
2.9131270459738e-159
7.9396069628864e-160
0
3.8868521153152e-161
1.4029546555842e-161
0
0
0
0
0
0
0
0
0
0
0
0
0
0
0
0
0
-1.9761341642411e-79
-1.9761243648234e-78
-9.3743154823824e-78
-2.8683961514195e-77
-6.4528059322859e-77
-1.1488339568212e-76
1.0986299314502e-62
5.0084192634623e-64
4.4186722100025e-63
3.0679350380466e-62
2.0824534352617e-61
1.0417742108839e-60
4.9716998444757e-60
9.773927119934e-58
8.1273998552193e-57
4.7248635618373e-56
7.4510065305781e-55
3.2435072624543e-54
2.8122443723057e-53
1.2189923389372e-52
4.5071303977294e-52
2.2919917724665e-51
7.2491292961715e-51
2.4919895627159e-50
8.5518562969916e-50
2.3238717020332e-49
4.476040892998e-49
8.7497375702649e-49
1.6698315144651e-48
3.0505029204655e-48
1.0172373543173e-47
2.1350509101554e-47
2.7083869354676e-47
2.8060878019381e-47
2.6694004293351e-47
2.3122589772217e-47
2.1474867489581e-47
1.8070505358998e-47
1.3385827708496e-47
7.8241455589743e-48
2.4877089174429e-48
4.7623714884693e-49
2.1967432664792e-50
2.7008607766227e-51
1.3393759923219e-51
1.1780749457279e-52
5.2700575257118e-53
4.7798741553836e-54
7.9198809991841e-55
4.0968644142244e-55
3.5901130078928e-56
1.5961583411273e-56
1.4595770283685e-57
2.4121157195947e-58
1.3722420479479e-58
2.1325769984324e-59
6.6424093672831e-60
5.1921605296934e-61
8.2663672221394e-62
3.9342282995199e-62
3.729804209722e-63
4.4729900670613e-64
1.1598358789543e-64
2.2792718639229e-65
4.2397200176486e-66
2.3211822949909e-66
7.3474135960688e-67
1.9097328147387e-67
4.4978547892611e-68
2.7782781497004e-69
3.9967945216486e-70
2.0334837110365e-70
6.3575090391958e-71
4.4023687586068e-72
6.7100216250348e-73
3.424000464741e-73
1.0783018370596e-73
2.1276037109584e-74
4.8963394642047e-75
3.3312329913233e-76
1.4692090461143e-76
3.6152787771103e-77
1.6828499999489e-77
0
0
0
0
0
0
0
0
0
7.6709278794763e-53
4.5576104502081e-51
4.8053357688203e-50
8.2234505028914e-49
1.0400629196599e-47
1.0196021268037e-46
2.817470399931e-46
2.4964053445308e-47
2.4729429469669e-45
-8.1035728563592e-53
-1.5557538193604e-62
2.010764683386e-85
2.4308653429145e-64
6.3876517100797e-45
-1.5681157685011e-59
-3.1115075594097e-62
1.9440007414257e-63
2.1877787393486e-62
1.5387377620649e-61
7.9648822251434e-61
3.9100431058509e-60
1.0228470607326e-46
9.0858385036095e-57
3.617194673523e-56
3.5252142800014e-46
3.6144651473187e-54
1.8212948290927e-40
1.4507609753378e-44
4.778985801871e-52
1.3996307274222e-43
7.9670413392113e-51
2.6576893542517e-45
4.5126831013243e-45
5.790709863319e-49
4.8252277741782e-49
3.3862310541823e-46
4.7657969821234e-47
6.4610977622067e-47
7.6227775687295e-48
2.0401684787407e-45
3.3447066320646e-44
4.6864534976946e-47
9.4668555393756e-46
2.4607156704896e-47
9.317123443686e-45
2.4503550299768e-47
1.4262133639965e-47
2.6918105001948e-46
2.8750572660531e-48
3.4426384948115e-47
1.0006770644098e-49
1.8826946631745e-50
7.8460236057788e-49
7.6746955603639e-52
8.693978454575e-50
3.0868273245728e-53
5.7905602515621e-54
1.6524174187428e-51
2.3657373826731e-55
1.5223297453289e-52
9.4914329998566e-57
1.7790972871881e-57
1.0073047395168e-53
6.9405120116279e-58
5.8643881954027e-55
3.2418129859381e-60
6.0418200872529e-61
2.626327519328e-56
1.7633676856465e-60
4.4738560445892e-63
5.8362090614077e-62
1.6608787478043e-64
5.6716814093394e-61
5.0824422028067e-60
1.1052197154143e-60
1.0506654591902e-61
4.8092111383726e-61
2.990822692321e-65
2.9132622998273e-69
4.9088438416679e-64
3.0913859492306e-64
2.6666363161001e-71
2.8818835395592e-66
2.3693600657424e-65
4.8114375264364e-66
2.057563579034e-67
2.4574403665725e-66
1.4958479037735e-70
4.0702003609682e-67
1.0508885515617e-68
4.4881384351568e-68
0
0
0
0
0
0
0
2.2103597359701e-43
1.9671407033912e-41
8.558396453275e-40
2.421880199034e-38
5.0327228633237e-37
8.1887909217051e-36
1.0746850882569e-34
1.157035877852e-33
1.0542487690181e-32
8.6119460914972e-32
6.7032589193756e-31
5.1047628857002e-30
3.7528115159137e-29
2.5899819267176e-28
1.6394979722815e-27
9.3889868828739e-27
4.8346569370978e-26
2.2353228991572e-25
9.2893325262751e-25
3.4770520202768e-24
1.1752378175366e-23
3.5969328839096e-23
9.9986281897184e-23
2.5329186756655e-22
5.8704839585928e-22
1.2504251654103e-21
2.4600296488934e-21
4.4926838453393e-21
7.6484311977446e-21
1.2160686531852e-20
1.799893704544e-20
2.4412938331114e-20
2.9230388181635e-20
3.0519255029493e-20
3.024903499107e-20
2.9041633857444e-20
2.6201539430639e-20
2.1330175841775e-20
1.5168462784157e-20
9.0651445443974e-21
4.3810602566132e-21
1.6701782842704e-21
5.1178533001517e-22
1.3704580220017e-22
3.5911654481921e-23
9.8627698631285e-24
2.8581204010382e-24
8.5943735175481e-25
2.6457987003919e-25
8.2752741000552e-26
2.6125122838119e-26
8.2614211506419e-27
2.59593970175e-27
8.0532974518179e-28
2.4577082083724e-28
7.3736248871939e-29
2.1777753662127e-29
6.3449399268848e-30
1.8269401458509e-30
5.205317748464e-31
1.46867424386e-31
4.1056435241931e-32
1.1376566372594e-32
3.1262044209232e-33
8.5232317675462e-34
2.3065714916584e-34
6.1984459937265e-35
1.6546697068927e-35
4.3893098032814e-36
1.1573617278732e-36
3.0342500204651e-37
7.9114380051112e-38
2.052038805028e-38
5.2958845881143e-39
1.3602043141957e-39
3.477492434758e-40
8.8512129522416e-41
2.24329823728e-41
5.6622278285091e-42
1.423534578933e-42
3.5652456485717e-43
8.8962814585058e-44
2.2119677986308e-44
5.480888049742e-45
1.3535452354289e-45
3.3318812734375e-46
8.1760806844981e-47
2.0001858061243e-47
4.8797698050459e-48
1.1848665113154e-48
2.9198693254308e-49
6.0734006396296e-50
2.809971535391e-50
0
0
0
0
0
0
2.0075133945218e-43
2.6314848967072e-41
1.5469414651325e-39
5.6663673821046e-38
1.476212396529e-36
2.9495939428325e-35
4.729785176638e-34
6.2329657576593e-33
6.8745127712284e-32
6.4586985305107e-31
5.2289780357705e-30
3.7703780861337e-29
2.5884976276073e-28
1.7644272473547e-27
1.1713584038452e-26
7.3405287472313e-26
4.2639228724843e-25
2.2674204427844e-24
1.092819670385e-23
4.7407528083163e-23
1.8440090803183e-22
6.4222060221643e-22
2.0034641776051e-21
5.6094082206991e-21
1.4149397061985e-20
3.2347000854015e-20
6.7572291182078e-20
1.3023761704794e-19
2.3375759522391e-19
3.933196998525e-19
6.218578145446e-19
9.2043323045784e-19
1.2560278730094e-18
1.5245675953961e-18
1.6117883519449e-18
1.6014909289794e-18
1.5463269397524e-18
1.4101918972795e-18
1.1661634500447e-18
8.473483845351e-19
5.2147880781283e-19
2.6231790563582e-19
1.0536950204558e-19
3.430298084529e-20
9.7286702120415e-21
2.6649839609036e-21
7.5673903793785e-22
2.2620617147148e-22
7.0393654247853e-23
2.2520656589133e-23
7.3389435423346e-24
2.4148711015788e-24
7.9466993656442e-25
2.5908621409519e-25
8.3087123333594e-26
2.610899753709e-26
8.0354669647361e-27
2.4266106218256e-27
7.2101996091328e-28
2.1132109089998e-28
6.1201839028022e-29
1.7534584602859e-29
4.9732739077766e-30
1.397151828904e-30
3.889792465074e-31
1.0737891530669e-31
2.9406401663642e-32
7.992785784213e-33
2.157098561479e-33
5.7825599889273e-34
1.5402661468972e-34
4.0778513051939e-35
1.0733735121507e-35
2.8097561989608e-36
7.3162825021785e-37
1.8954587475178e-37
4.8868745842412e-38
1.2540812032135e-38
3.2038830535436e-39
8.1500063385617e-40
2.0646127356054e-40
5.2093485059631e-41
1.3093424833439e-41
3.2787283864714e-42
8.1807659270084e-43
2.0340884555017e-43
5.0405871978092e-44
1.2450148836578e-44
3.0653724475801e-45
7.5256366401965e-46
1.8386515287335e-46
4.5581606785438e-47
9.5444887861903e-48
4.4382399371052e-48
0
0
0
0
0
8.9852138333206e-44
1.6068934516134e-41
1.2214282555849e-39
5.5614899025274e-38
1.7619424167405e-36
4.2114093494466e-35
7.995645048924e-34
1.2469379379507e-32
1.6280862272022e-31
1.8104871827625e-30
1.7319645336933e-29
1.4338963462743e-28
1.0432551685475e-27
6.7648929375168e-27
4.1320209538386e-26
2.6567901152082e-25
1.7581735282265e-24
1.0847398190314e-23
6.0611282255453e-23
3.0823444224853e-22
1.4218225847296e-21
5.8918592220781e-21
2.1708358385445e-20
7.0522263591865e-20
2.0084660552391e-19
5.0003227524427e-19
1.0906882650157e-18
2.1059348800302e-18
3.6726485805994e-18
5.9490942559951e-18
9.2090118679613e-18
1.3877090785574e-17
2.0360063392999e-17
2.8459076500385e-17
3.6199890664746e-17
3.9927404121156e-17
3.9986326598157e-17
3.9015208143879e-17
3.611684641574e-17
3.0513175334199e-17
2.272486420848e-17
1.4406388589826e-17
7.5190757362197e-18
3.1625322387796e-18
1.0863050540087e-18
3.2523787200222e-19
9.3350439230366e-20
2.7547746927621e-20
8.5336734640688e-21
2.7566791479753e-21
9.1809806956354e-22
3.120204097534e-22
1.0708795160257e-22
3.6706683581401e-23
1.2435655467707e-23
4.1310285499219e-24
1.3397698958692e-24
4.2392152302525e-25
1.3112897429482e-25
3.9783167875946e-26
1.187711142571e-26
3.4980772297901e-27
1.0180441998904e-27
2.9305803264543e-28
8.3498977201357e-29
2.3561213530167e-29
6.5879216897841e-30
1.826317022995e-30
5.0223768626376e-31
1.3707365912979e-31
3.7144411261188e-32
9.997498816095e-33
2.673596180118e-33
7.1062817988632e-34
1.877828691974e-34
4.9345949087928e-35
1.2898384039019e-35
3.3543295036309e-36
8.6806857218606e-37
2.2359657640377e-37
5.7334793931312e-38
1.4638189053649e-38
3.7217031146677e-39
9.4242408157556e-40
2.3771816892751e-40
5.9737523920002e-41
1.4957365490193e-41
3.7319610158746e-42
9.2798857130617e-43
2.2998922706044e-43
5.6828938640985e-44
1.3972707600339e-44
3.4852943489711e-45
7.3472393028653e-46
3.4350540778039e-46
0
0
0
0
0
4.0632572534124e-42
5.1553649032899e-40
3.1412864795276e-38
1.2302472591221e-36
3.5006798002474e-35
7.7457284655271e-34
1.3918740843009e-32
2.0913629721615e-31
2.6734476571211e-30
2.9542469474614e-29
2.8386930723825e-28
2.3872679412569e-27
1.7763992191742e-26
1.1552424665974e-25
6.8134709686552e-25
3.8276030371019e-24
2.3921121682061e-23
1.9105110009692e-22
1.6942149805029e-21
1.2550869061194e-20
7.5490162512574e-20
3.7760286788149e-19
1.5896505847763e-18
5.6545755246066e-18
1.6901260374465e-17
4.2613724483761e-17
8.8944095376566e-17
1.4811706435828e-16
1.9702256274801e-16
2.2767026532575e-16
2.5309824826908e-16
2.8740185194307e-16
3.4225839101359e-16
4.2630550719729e-16
5.3270211727469e-16
6.1481132789901e-16
6.3022630336375e-16
6.2078817090947e-16
5.8453314420937e-16
5.0616218595049e-16
3.8697037074161e-16
2.5251707148522e-16
1.3623148319641e-16
5.9653515492261e-17
2.1506608875644e-17
6.7872128726878e-18
2.0477296307945e-18
6.3145110931952e-19
2.0373155110658e-19
6.8563058668488e-20
2.3826298221555e-20
8.4571887034726e-21
3.030660883148e-21
1.0832605563299e-21
3.8193292968984e-22
1.3170234829521e-22
4.4196906690394e-23
1.4415549421491e-23
4.5780845694776e-24
1.4207227296171e-24
4.3256806411353e-25
1.2965792899602e-25
3.8350323580296e-26
1.1209476317262e-26
3.2405817312034e-27
9.2716752320932e-28
2.626932252975e-28
7.3748690828602e-29
2.0527019041036e-29
5.6675366619375e-30
1.5529766622939e-30
4.2249292821652e-31
1.1416178860176e-31
3.064903794583e-32
8.177927587384e-33
2.1693254153121e-33
5.722372086923e-34
1.5014246284348e-34
3.9192705912144e-35
1.0180577137143e-35
2.6320238794117e-36
6.7738669894091e-37
1.7357488719505e-37
4.4290419164357e-38
1.125564463079e-38
2.8492446893268e-39
7.1853092295877e-40
1.8053926435708e-40
4.5202312884198e-41
1.1278489486242e-41
2.8053200898286e-42
6.9424541645933e-43
1.742646286244e-43
3.6985853853908e-44
1.7392410250126e-44
0
0
0
0
1.4205221959507e-54
8.8140861130539e-41
9.7277146396068e-39
5.2932762439314e-37
1.8911056233037e-35
4.990127429507e-34
1.0375679388805e-32
1.7720983568565e-31
2.5574477267692e-30
3.176170603125e-29
3.4480335614101e-28
3.2902444748364e-27
2.7790492414789e-26
2.0930423832594e-25
1.3867550812393e-24
8.3123146739325e-24
4.3372735924123e-23
2.3712543718247e-22
1.9632186383347e-21
1.8171339772634e-20
2.0070993256158e-19
1.9507127823727e-18
1.4183501628727e-17
7.7437179467326e-17
3.2841937742402e-16
1.0912322727787e-15
2.8307594968616e-15
5.6367186256501e-15
8.199473916382e-15
8.8449307195205e-15
8.5997653393382e-15
7.6836592130812e-15
6.114709376657e-15
5.3353475478568e-15
5.4774456281215e-15
5.9660352826252e-15
6.6724602166636e-15
7.040589949664e-15
6.9885336472941e-15
6.6784060994086e-15
5.9142731123925e-15
4.6344760497766e-15
3.1084875723691e-15
1.7308242219331e-15
7.8794251169565e-16
2.9795501112217e-16
9.9200372689517e-17
3.1550664077541e-17
1.0209841983799e-17
3.4459918607662e-18
1.2126158134009e-18
4.408652832879e-19
1.6372396631931e-19
6.133687818758e-20
2.2890972898074e-20
8.4142755938713e-21
3.0193857909781e-21
1.0517047207035e-21
3.5479641650496e-22
1.1604684897245e-22
3.6929898962228e-23
1.148747681974e-23
3.508204234176e-24
1.0553597441479e-24
3.1338457643491e-25
9.196724447387e-26
2.6692681258639e-26
7.6669901353923e-27
2.1807252548952e-27
6.1459678229908e-28
1.7173057003931e-28
4.7599452116795e-29
1.3093489987566e-29
3.5759162775273e-30
9.6997191801506e-31
2.6140746244732e-31
7.0016227640427e-32
1.8643412572876e-32
4.9364235485857e-33
1.3000657505589e-33
3.4062922996082e-34
8.880819195431e-35
2.3044284710852e-35
5.952390936712e-36
1.530775417699e-36
3.9200579756358e-37
9.9976839095454e-38
2.5397635204071e-38
6.4273437468749e-39
1.6205761571776e-39
4.0714431491223e-40
1.019554664936e-40
2.5399148755613e-41
6.4167498350879e-42
1.3711849959074e-42
6.4877312814644e-43
0
0
0
0
-9.7239604366405e-66
1.2201451135024e-39
1.254083731325e-37
6.4027081358391e-36
2.1610782252872e-34
5.4197800020869e-33
1.0763931953898e-31
1.7637203047418e-30
2.4524104162185e-29
2.9512955503745e-28
3.1243897468695e-27
2.9325266923355e-26
2.4603341668202e-25
1.8540442737458e-24
1.2417429555285e-23
7.6102137641066e-23
4.0064102539836e-22
1.947496007782e-21
1.2875382278778e-20
1.1555519680105e-19
1.4424136435436e-18
1.6462541641953e-17
1.4342880281657e-16
9.7060794111637e-16
4.5478980449506e-15
1.654300302271e-14
4.8355005265237e-14
1.0886770519094e-13
1.7417062969904e-13
1.9411627694968e-13
1.8876476768092e-13
1.684155400434e-13
1.3072705565423e-13
8.7023132768203e-14
6.0481859727047e-14
5.7092093547251e-14
5.8446506669457e-14
5.9633269223714e-14
5.9288757012593e-14
5.7155127086797e-14
5.1323481643525e-14
4.1173353054211e-14
2.8437870336149e-14
1.6398416415512e-14
7.7770754936309e-15
3.0833867526875e-15
1.081497504437e-15
3.6271776594057e-16
1.2353463338151e-16
4.3798336037452e-17
1.6176653945073e-17
6.1701833359818e-18
2.4019528820437e-18
9.4212638559027e-19
3.6769196916681e-19
1.4120923071185e-19
5.2885594381084e-20
1.9191104400076e-20
6.7240812051611e-21
2.2743185612264e-21
7.447500362305e-22
2.3727695396584e-22
7.3950122367122e-23
2.2647840251102e-23
6.8366122953204e-24
2.0376779998115e-24
6.0024603214963e-25
1.7486937028854e-25
5.0415367049984e-26
1.4393241197611e-26
4.0717105692312e-27
1.1420147201727e-27
3.1773713890249e-28
8.7733179873531e-29
2.405115586752e-29
6.5485318077808e-30
1.7714696542685e-30
4.7625456197179e-31
1.2728679984498e-31
3.3828276811071e-32
8.9419774470824e-33
2.3514820902729e-33
6.1531081694781e-34
1.6024200885577e-34
4.1539931973514e-35
1.0721025044617e-35
2.7552241318128e-36
7.0516774303541e-37
1.7976438757578e-37
4.5650872337209e-38
1.1549761443564e-38
2.9121932407097e-39
7.3039634274431e-40
1.857418216483e-40
3.9962477974168e-41
1.9031396938659e-41
0
0
0
0
0
1.2154169664996e-38
1.200056486786e-36
5.8966606453393e-35
1.9195558387907e-33
4.6519245856803e-32
8.9421591971631e-31
1.4199060584495e-29
1.9154471417103e-28
2.2402473712287e-27
2.309944027957e-26
2.121385479078e-25
1.7524261079229e-24
1.308810986582e-23
8.7763081502401e-23
5.4045149745828e-22
2.9495491343674e-21
1.4008426771025e-20
7.1497761212751e-20
5.045062892812e-19
5.6787555668237e-18
7.0627109762956e-17
7.0395731361807e-16
4.7603199188813e-15
3.2818487831447e-14
1.686927093462e-13
5.7641304841416e-13
1.6106760834189e-12
3.1934052683467e-12
3.9336940064367e-12
3.8400565959313e-12
3.3937730856257e-12
2.5454042696263e-12
1.5064527096438e-12
7.4978696386823e-13
4.4176317948193e-13
3.8692581566508e-13
3.8140776391847e-13
3.7669553155156e-13
3.6438011610176e-13
3.3422450412346e-13
2.7811090895965e-13
2.0047661484622e-13
1.2064272758517e-13
5.9629732984281e-14
2.4691381296174e-14
9.097729167124e-15
3.2206939056391e-15
1.1586700001166e-15
4.3328036500086e-16
1.6853756961991e-16
6.7616762812246e-17
2.7647300349157e-17
1.1374049879052e-17
4.6514750532241e-18
1.8711444061729e-18
7.3386296019644e-19
2.7860982273272e-19
1.018783177384e-19
3.5811664655184e-20
1.2120962147251e-20
3.9689853208557e-21
1.2652624435548e-21
3.9502315246877e-22
1.2131252002284e-22
3.674212891585e-23
1.0989866486304e-23
3.2488470490164e-24
9.4984067998132e-25
2.7481547156337e-25
7.8739467097233e-26
2.2355423669764e-26
6.2930709317713e-27
1.7573220446884e-27
4.8701569574485e-28
1.3400196180144e-28
3.6619612938414e-29
9.9424893587313e-30
2.6827974812353e-30
7.1963785672032e-31
1.9194905710267e-31
5.0922287620848e-32
1.3439289461418e-32
3.5292382975434e-33
9.2237102162174e-34
2.3995429929829e-34
6.2147388383719e-35
1.6027191068674e-35
4.1162011850735e-36
1.0529366779483e-36
2.6830071200842e-37
6.8124416978439e-38
1.7203517152326e-38
4.4042625579064e-39
9.5407387185728e-40
4.5746770907105e-40
0
0
0
0
0
9.3222440445299e-38
8.9881022900616e-36
4.3116831170269e-34
1.3704860164901e-32
3.2439316796716e-31
6.0922269583471e-30
9.4517860129723e-29
1.245626990663e-27
1.4229937704835e-26
1.4327620166386e-25
1.2864845822072e-24
1.041806704779e-23
7.6582142270827e-23
5.1014089525077e-22
3.1205234313009e-21
1.7319493038641e-20
8.5190335486545e-20
3.8660502093202e-19
1.9856186398293e-18
1.5511701161815e-17
1.6707326200723e-16
1.7539105248235e-15
1.3146252369499e-14
9.8086452440028e-14
5.5752248010635e-13
4.0253787690629e-12
1.3949630148092e-11
3.7971029096167e-11
6.6679660424629e-11
6.6330578472917e-11
5.5279089692477e-11
3.5612538440411e-11
1.6475345665189e-11
6.1707700075186e-12
2.5857738319669e-12
1.7876854153637e-12
1.729561296552e-12
1.7426322143391e-12
1.7316036729856e-12
1.6526739874257e-12
1.4404082237841e-12
1.0831668236766e-12
6.772150252506e-13
3.4905091337233e-13
1.5234403682664e-13
5.9721031702667e-14
2.2531041200341e-14
8.6081455879795e-15
3.4070440825606e-15
1.4000658803187e-15
5.9249667785404e-16
2.5509197910268e-16
1.1032691973053e-16
4.7394872838704e-17
2.0029654224873e-17
8.2570914046715e-18
3.2947250820661e-18
1.2641187305678e-18
4.644638501708e-19
1.633765705218e-19
5.5230057614109e-20
1.8065451913201e-20
5.7602895016746e-21
1.801427243891e-21
5.5472087299389e-22
1.6854530987668e-22
5.0580722858276e-23
1.5002518391122e-23
4.400790595956e-24
1.27756561084e-24
3.6730018039356e-25
1.0464561571233e-25
2.9561532618313e-26
8.2842361814399e-27
2.3040242093347e-27
6.3621139118054e-28
1.7448230088985e-28
4.754222683144e-29
1.287410083357e-29
3.4656458503977e-30
9.2766828539329e-31
2.4697079657975e-31
6.5409163893718e-32
1.7236965687557e-32
4.520593097535e-33
1.1801036530946e-33
3.0669584584389e-34
7.9364614540088e-35
2.0452319239468e-35
5.2493500605656e-36
1.342351629936e-36
3.4135045936483e-37
8.7984856530125e-38
1.9190557978597e-38
9.2673768027783e-39
0
0
0
0
0
5.747942583163e-37
5.4636305924995e-35
2.5815088405274e-33
8.0758403941102e-32
1.8805196546362e-30
3.4733579618833e-29
5.2972340971127e-28
6.8579828513297e-27
7.6900271368455e-26
7.5901412359674e-25
6.676171862128e-24
5.2942474672324e-23
3.8155875589664e-22
2.5071642503641e-21
1.5139157314093e-20
8.39290868608e-20
4.2321777882912e-19
1.9194062852624e-18
8.3308583396398e-18
4.2438261506297e-17
3.0560213650253e-16
2.5619609379947e-15
1.9354767769427e-14
1.3629725245016e-13
8.4560902129111e-13
5.318202747257e-12
3.1959269409326e-11
2.0690587665091e-10
6.3823700644538e-10
6.7843542301473e-10
5.376262504511e-10
2.734528616177e-10
9.4221596759422e-11
2.9973303868404e-11
1.2390566098737e-11
7.9486374087563e-12
6.7827517143143e-12
6.5051299281969e-12
6.3335899189717e-12
5.9819074336797e-12
5.2478999812737e-12
4.0824317872404e-12
2.7110906318967e-12
1.5129480360941e-12
7.2044490576361e-13
3.0699988193889e-13
1.2475187884718e-13
5.0951650510887e-14
2.1472720652119e-14
9.3725330191117e-15
4.2021378579739e-15
1.9115526329426e-15
8.7177618833313e-16
3.9461296356067e-16
1.758129244516e-16
7.649325566724e-17
3.2235041665203e-17
1.3050682252408e-17
5.0434501260616e-18
1.8552640137931e-18
6.510462047428e-19
2.193933882821e-19
7.1625497902184e-20
2.2840335028403e-20
7.1555029218175e-21
2.2093747772492e-21
6.7333115108839e-22
2.0269175845018e-22
6.0305045804732e-23
1.7744945972592e-23
5.1678906821796e-24
1.4906365422491e-24
4.2610876306033e-25
1.207800647349e-25
3.3962773597949e-26
9.4782720372731e-27
2.6262807176473e-27
7.2275727061733e-28
1.9761677082846e-28
5.3698777274599e-29
1.4505522130042e-29
3.8961957689803e-30
1.0408511541295e-30
2.7661247214391e-31
7.3143966193815e-32
1.9248255305687e-32
5.04182264676e-33
1.3147384500587e-33
3.4136250095023e-34
8.8261437083176e-35
2.2733094216284e-35
5.8218002297887e-36
1.5109963368539e-36
3.3183523883524e-37
1.6143920585197e-37
0
0
0
2.3135923084252e-65
9.3341289545202e-51
2.9316250751498e-36
2.7646491159131e-34
1.2944868257021e-32
4.0088338757006e-31
9.2327473712237e-30
1.685501226362e-28
2.538698062541e-27
3.2430540959694e-26
3.5847928157279e-25
3.4825843310005e-24
3.0105795527158e-23
2.3415691992255e-22
1.6533732483298e-21
1.0661292082292e-20
6.3217665282602e-20
3.4596727357876e-19
1.7480517638276e-18
8.0691803611823e-18
3.4166661852568e-17
1.4056027147545e-16
6.4785146346888e-16
3.6204411269797e-15
2.2284715066079e-14
1.3174700712253e-13
8.1847145693004e-13
4.8216500158972e-12
3.0873635597743e-11
1.7128997693402e-10
7.9926537979254e-10
3.588699116008e-09
4.0006055486247e-09
2.5739461157587e-09
1.1472091709663e-09
4.8360942569716e-10
2.2629750386878e-10
1.058670023146e-10
4.6367803714892e-11
2.3088553044873e-11
1.688643905308e-11
1.4676840947987e-11
1.2863845630078e-11
1.0530886794217e-11
7.6364824002981e-12
4.7476721829469e-12
2.5307700793047e-12
1.2002462544188e-12
5.3687115065261e-13
2.3870020158448e-13
1.0854982029079e-13
5.0778514359712e-14
2.4264492970773e-14
1.1715089000766e-14
5.6563947978264e-15
2.70878100323e-15
1.2777228373409e-15
5.8940797976088e-16
2.6365372425227e-16
1.1328182215475e-16
4.6339962377674e-17
1.7946224785895e-17
6.578257453179e-18
2.2952924383439e-18
7.698245058668e-19
2.5078606780067e-19
8.0005172764728e-20
2.5115621490655e-20
7.7760172588772e-21
2.3766313799243e-21
7.1747823901646e-22
2.1407928898398e-22
6.3179961676681e-23
1.8456423398374e-23
5.3404378143652e-24
1.5315370773887e-24
4.3553804154763e-25
1.2287776114904e-25
3.4407255417828e-26
9.5657966483968e-27
2.6414200952423e-27
7.2466523897552e-28
1.9758241701447e-28
5.3553455274226e-29
1.4433235384913e-29
3.8688128153084e-30
1.0316286168446e-30
2.7370842975985e-31
7.2269305240474e-32
1.8993148950237e-32
4.9692445280916e-33
1.2944691581215e-33
3.3585978590867e-34
8.6630517629797e-35
2.2642642843184e-35
5.0070352700102e-36
2.4547764625725e-36
0
0
0
1.960739409285e-63
4.9755970223558e-49
1.2606855037419e-35
1.1850934960205e-33
5.5244946193608e-32
1.7014651644159e-30
3.8927774426371e-29
7.0525480262014e-28
1.0531792394481e-26
1.3326286197717e-25
1.4576669100073e-24
1.3993538530198e-23
1.1935335715351e-22
9.1370042108294e-22
6.3353260258434e-21
4.0053411383913e-20
2.3256157353171e-19
1.2466719916536e-18
6.2053377718711e-18
2.8621765581433e-17
1.2180333463574e-16
4.8259207420733e-16
1.8237111133158e-15
7.0470494030781e-15
2.9955364362842e-14
1.4069310949407e-13
6.8576706359723e-13
3.2233194647475e-12
2.0425624283974e-11
8.7180486313144e-11
4.4489944024155e-10
1.9509269752532e-09
7.4830369581436e-09
2.4450918185173e-08
2.4740794992227e-08
2.137641635052e-08
1.4063544072147e-08
5.6391223531543e-09
9.9796187191669e-10
8.0457187656e-11
2.461716629307e-11
2.3726756679266e-11
2.2427434680442e-11
1.917447734653e-11
1.4758960654108e-11
1.0176346775079e-11
6.1921974569667e-12
3.3879208952886e-12
1.7356503759753e-12
8.683306449226e-13
4.3599706799705e-13
2.2179615010716e-13
1.1403197954125e-13
5.8836876196837e-14
3.0251387032916e-14
1.5409791372775e-14
7.7359522788756e-15
3.8031399397286e-15
1.8153588446292e-15
8.3244413535756e-16
3.626907118203e-16
1.4886228022691e-16
5.73763171746e-17
2.0849248796227e-17
7.2146342435121e-18
2.4074290516175e-18
7.83174754086e-19
2.5015168064606e-19
7.8720092645836e-20
2.4439006995478e-20
7.4896282416557e-21
2.2671048169278e-21
6.7831932626278e-22
2.0076599536766e-22
5.8825206551032e-23
1.7074188896332e-23
4.9121111162865e-24
1.4014120352209e-24
3.9666908886434e-25
1.114378962641e-25
3.1084310381197e-26
8.6119499376575e-27
2.370553240471e-27
6.4850176371772e-28
1.7636059957587e-28
4.7690091367998e-29
1.2825979632971e-29
3.4314804145401e-30
9.1345617628205e-31
2.4198588704142e-31
6.3806583295367e-32
1.6748482694814e-32
4.3780487609608e-33
1.1375357960493e-33
2.9945393851965e-34
6.6680865933309e-35
3.2954193659888e-35
0
0
0
1.4379491058026e-63
3.7043666029563e-49
4.6268836023494e-35
4.3525814681203e-33
2.027764029766e-31
6.2350670679528e-30
1.422472027616e-28
2.5666705097996e-27
3.8134784472883e-26
4.7963572178838e-25
5.2098219397011e-24
4.9607898309972e-23
4.1911272067494e-22
3.1718326683102e-21
2.1688712174943e-20
1.3488344246649e-19
7.6807188895459e-19
4.0270902274254e-18
1.9581122893342e-17
8.8625233928774e-17
3.7361298377521e-16
1.468595484455e-15
5.3720570029552e-15
1.8399491067198e-14
6.1690805779115e-14
2.0976020016859e-13
7.7341028812553e-13
2.6587572495817e-12
8.6148469655051e-12
2.4722304731218e-11
1.0395656892754e-10
5.5771176670806e-10
6.3871616018631e-09
8.802231573821e-08
3.2266033821247e-07
8.3009347462788e-07
4.7343072421337e-07
1.2875239337415e-07
2.0134567634509e-08
2.1189096392777e-09
2.8808583984906e-10
7.0573934046248e-11
3.4282324524933e-11
2.4582203060554e-11
1.8718466618893e-11
1.3903829575305e-11
9.734632623093e-12
6.4173950639574e-12
3.9812686891736e-12
2.3551375739665e-12
1.3548382348552e-12
7.684843311726e-13
4.3227851204603e-13
2.4122436945492e-13
1.3330854468088e-13
7.2794813699327e-14
3.9156749999386e-14
2.0639928962954e-14
1.0572112449128e-14
5.2024284285372e-15
2.4281272300558e-15
1.0628060813827e-15
4.3355845632676e-16
1.6509492492713e-16
5.9244739447321e-17
2.0322234316573e-17
6.7563260264868e-18
2.1984306962541e-18
7.0372391545818e-19
2.2205443646106e-19
6.9121566095729e-20
2.1237934661503e-20
6.4456343325783e-21
1.9338724634552e-21
5.7404574271074e-22
1.6870729512952e-22
4.9120365455864e-23