/*--------------------------------*- C++ -*----------------------------------*\
  =========                 |
  \\      /  F ield         | OpenFOAM: The Open Source CFD Toolbox
   \\    /   O peration     | Website:  https://openfoam.org
    \\  /    A nd           | Version:  7
     \\/     M anipulation  |
\*---------------------------------------------------------------------------*/
FoamFile
{
    version     2.0;
    format      ascii;
    class       volScalarField;
    location    "0.5";
    object      alpha.water;
}
// * * * * * * * * * * * * * * * * * * * * * * * * * * * * * * * * * * * * * //

dimensions      [0 0 0 0 0 0 0];

internalField   nonuniform List<scalar> 
6000
(
0
0
0
0
0
0
0
0
0
0
0
0
0
0
0
0
0
0
0
0
0
0
0
0
0
0
0
0
0
0
0
0
0
0
0
0
0
0
0
0
0
0
0
0
0
0
0
0
0
0
0
0
0
0
0
0
0
0
0
0
0
0
0
0
0
0
0
0
0
0
0
0
0
0
0
0
0
0
0
0
0
0
0
0
0
0
0
0
0
0
0
0
0
0
0
0
0
0
0
0
0
0
0
0
0
0
0
0
0
0
0
0
0
0
0
0
0
0
0
0
0
0
0
0
0
0
0
0
0
0
0
0
0
0
0
0
0
0
0
0
0
0
0
0
0
0
0
0
0
0
0
0
0
0
0
0
0
0
0
0
0
0
0
0
0
0
0
0
0
0
0
0
0
0
0
0
0
0
0
0
0
0
0
0
0
0
0
0
0
0
0
0
0
0
0
0
0
0
0
0
0
0
0
0
0
0
0
0
0
0
0
0
0
0
0
0
0
0
0
0
0
0
0
0
0
0
0
0
0
0
0
0
0
0
0
0
0
0
0
0
0
0
0
0
0
0
0
0
0
0
0
0
0
0
0
0
0
0
0
0
0
0
0
0
0
0
0
0
0
0
0
0
0
0
0
0
0
0
0
0
0
0
0
0
0
0
0
0
0
0
0
0
0
0
0
0
0
0
0
0
0
0
0
0
0
0
0
0
0
0
0
0
0
0
0
0
0
0
0
0
0
0
0
0
0
0
0
0
0
0
0
0
0
0
0
0
0
0
0
0
0
0
0
0
0
0
0
0
0
0
0
0
0
0
0
0
0
0
0
0
0
0
0
0
0
0
0
0
0
0
0
0
0
0
0
0
0
0
0
0
0
0
0
0
0
0
0
0
0
0
0
0
0
0
0
0
0
0
0
0
0
0
0
0
0
0
0
0
0
3.0269173462254e-34
4.936337744643e-33
3.9258347443848e-32
2.0277176530919e-31
7.6441010901572e-31
2.2413562405904e-30
5.3201718725139e-30
1.0506947795274e-29
1.7612336160155e-29
2.5439385682155e-29
3.2038831435527e-29
3.5517265441371e-29
3.4926451007478e-29
3.0662466686849e-29
2.4162137330353e-29
1.7167981852255e-29
1.1041988693961e-29
6.4500872400828e-30
3.4317392278649e-30
1.6670765992457e-30
7.4095862629007e-31
3.0185023114847e-31
1.1287000516345e-31
3.8784733340219e-32
1.2258142534767e-32
3.5656602878247e-33
9.5490735842854e-34
2.3546618085463e-34
5.3452396202287e-35
1.1165727195839e-35
2.1447699349432e-36
3.7846125349389e-37
6.1271502844959e-38
9.0868131736605e-39
1.2321443457586e-39
1.5241894753763e-40
1.7155689563518e-41
1.751653359148e-42
1.6166947727987e-43
1.343312334953e-44
1.0001067074065e-45
6.6352873976353e-47
3.898042901353e-48
2.0125672720283e-49
9.0510804185599e-51
3.5077554470733e-52
1.1561252549505e-53
3.1872699324793e-55
7.1931760715179e-57
1.2908090274539e-58
1.7664269654848e-60
1.7266084499781e-62
1.0706907870409e-64
3.1576011763305e-67
0
0
0
0
0
0
0
0
0
0
0
0
0
0
0
0
0
0
0
0
0
0
0
0
0
0
0
0
0
0
0
0
0
0
0
0
0
0
0
0
0
0
0
0
-2.7982830816361e-24
-3.2097294696601e-23
-1.7053232461409e-22
-5.2891502545248e-22
-8.7890090450176e-22
3.1459040194105e-22
7.0397154598833e-21
2.5392445053808e-20
6.0033776187405e-20
1.0875055506545e-19
1.6020534528048e-19
1.9883857225235e-19
2.1401687995812e-19
2.0557569273946e-19
1.8143460764981e-19
1.5081953480447e-19
1.1959348599253e-19
9.0196854368168e-20
6.3811861254394e-20
4.1666550066309e-20
2.4786046788186e-20
1.3320890872913e-20
6.4382897323327e-21
2.7922822231245e-21
1.0856379364408e-21
3.7822141597783e-22
1.1801715414577e-22
3.2957703233861e-23
8.2269706616145e-24
1.8321747778302e-24
3.6304396526237e-25
6.3769492084858e-26
9.881087298108e-27
1.3420353753525e-27
1.5844962528655e-28
1.6087557298591e-29
1.38469582488e-30
9.9105579984053e-32
5.7410696980616e-33
2.5867508539169e-34
8.5063030001629e-36
1.8160578664576e-37
1.8891300521986e-39
7.2165261531682e-47
3.8261851665534e-48
1.7658522735192e-49
7.0184415017932e-51
2.370862662832e-52
6.6950813982802e-54
1.5468577764917e-55
2.8402236321023e-57
3.9748936647903e-59
3.9714675023466e-61
2.5162022895755e-63
7.5782428231932e-66
0
0
0
0
0
0
0
0
0
0
0
0
0
0
0
0
0
0
0
0
0
0
0
0
0
0
0
0
0
0
0
0
0
0
0
0
0
0
0
0
0
0
0
0
-1.2413405854219e-22
-1.6865838426937e-21
-1.106486656783e-20
-4.661276399549e-20
-1.4157242865264e-19
-3.3016166165502e-19
-6.1445064121902e-19
-9.3534318112811e-19
-1.1822021641865e-18
-1.2443044336789e-18
-1.0627124059712e-18
-6.4698986777535e-19
-6.7653876693914e-20
5.5401970522636e-19
1.0694998831615e-18
1.3552052564349e-18
1.3690987455353e-18
1.1659328695371e-18
8.5781754716278e-19
5.5302920722612e-19
3.1551816756289e-19
1.6055012847261e-19
7.3338398354569e-20
3.0235499167625e-20
1.1296213077675e-20
3.8339934311818e-21
1.1828927562295e-21
3.3132813783205e-22
8.3999138130271e-23
1.9189563894295e-23
3.9286608182594e-24
7.162868857683e-25
1.1549140725289e-25
1.6337690539703e-26
2.0089728234007e-27
2.1230168431379e-28
1.9002028229533e-29
1.4128028277118e-30
8.4930981869113e-32
3.9672530380033e-33
1.3512668433271e-34
2.985560624847e-36
3.211520101838e-38
6.4900062983093e-46
3.5364285897699e-47
1.676180702132e-48
6.8371708393918e-50
2.3687985094323e-51
6.8563695171819e-53
1.6227406005232e-54
3.0504762791312e-56
4.3684216059275e-58
4.4638725914666e-60
2.8910427400766e-62
8.8965413143112e-65
0
0
0
0
0
0
0
0
0
0
0
0
0
0
0
0
0
0
0
0
0
0
0
0
0
0
0
0
0
0
0
0
0
0
0
0
0
0
0
0
0
0
0
0
4.1210260988186e-24
-7.7697934573849e-22
-1.0548590727551e-20
-6.7562454830187e-20
-2.8164216051677e-19
-8.6284756005911e-19
-2.0522314478169e-18
-3.9040542814491e-18
-6.1168119127226e-18
-8.0624318415945e-18
-8.8578965998734e-18
-7.6842956573774e-18
-4.5903842473061e-18
-7.642487190304e-19
2.42350334032e-18
4.3417050983568e-18
4.9901356424225e-18
4.5906012808906e-18
3.5239127288774e-18
2.2906149381655e-18
1.2836333901853e-18
6.3583489180847e-19
2.8569572223614e-19
1.1845236713341e-19
4.5457921965659e-20
1.6037152854614e-20
5.1567193878516e-21
1.5029463952765e-21
3.959357445705e-22
9.4038258373322e-23
2.0051011316987e-23
3.8139914389764e-24
6.4216570458912e-25
9.4866359785258e-26
1.2174762803911e-26
1.3414861658747e-27
1.2505087502844e-28
9.6718227289903e-30
6.0412510962395e-31
2.9289000631336e-32
1.0343422018086e-33
2.3672445719145e-35
2.6353353460748e-37
3.7764504717191e-45
2.1167095932595e-46
1.0311901145673e-47
4.3201489211043e-49
1.5362233879113e-50
4.560786132768e-52
1.1064813322099e-53
2.1308702523556e-55
3.1244050493249e-57
3.2672267322503e-59
2.1643295245793e-61
6.8085775364626e-64
0
0
0
0
0
0
0
0
0
0
0
0
0
0
0
0
0
0
0
0
0
0
0
0
0
0
0
0
0
0
0
0
0
0
0
0
0
0
0
0
0
0
0
0
0
3.045537603593e-23
-2.3203650648302e-21
-3.1901680108753e-20
-2.0022185509203e-19
-8.2168181931102e-19
-2.4914112025353e-18
-5.8218230548023e-18
-1.0610130858793e-17
-1.5302292914962e-17
-1.7448532659889e-17
-1.4611452580222e-17
-6.7515594307813e-18
-1.5037136856238e-18
-4.5796919530048e-18
-7.140044087099e-18
-8.6521000002003e-18
-7.2279029373999e-18
-4.3536044739977e-18
-1.4979238398822e-18
1.8049854763652e-19
5.8345962701254e-19
4.365234111325e-19
2.2943772671604e-19
1.0012056026391e-19
3.8509125042041e-20
1.3284692988524e-20
4.1162330135019e-21
1.1448985182352e-21
2.8591038634251e-22
6.3994923514318e-23
1.2772136383234e-23
2.2552272896954e-24
3.4907752626763e-25
4.6880738995193e-26
5.3979207431115e-27
5.2504448098201e-28
4.2312118230076e-29
2.7500643291234e-30
1.3855962051089e-31
5.0794219329247e-33
1.2054477140286e-34
1.3901629400699e-36
1.5977245859381e-44
9.2203390611251e-46
4.6209434427584e-47
1.9900283559868e-48
7.2688312078033e-50
2.2151240160305e-51
5.5127179808626e-53
1.0883646462373e-54
1.6350510139434e-56
1.7508839839309e-58
1.1870885762487e-60
3.8195725279408e-63
0
0
0
0
0
0
0
0
0
0
0
0
0
0
0
0
0
0
0
0
0
0
0
0
0
0
0
0
0
0
0
0
0
0
0
0
0
0
0
0
0
0
0
0
0
4.0369949772492e-34
1.1556697154457e-22
-4.2609222814339e-21
-6.094405486536e-20
-3.7671720063211e-19
-1.5115494439125e-18
-4.4584980936564e-18
-9.9944431819518e-18
-1.6904565484488e-17
-2.1851791588559e-17
-2.2048045327673e-17
-1.2271860684079e-17
-3.1130738073219e-17
-4.2796122134437e-17
-9.2807705964759e-17
1.3877787807814e-17
1.1796119636642e-16
1.2891163830853e-16
-9.1175339886991e-18
-3.1855842923766e-18
1.4879317766216e-19
3.5785719948454e-19
2.643127849715e-19
1.381214647714e-19
5.9822176549488e-20
2.2651543168355e-20
7.5994296215967e-21
2.2654615878085e-21
6.0189313414661e-22
1.4269113630481e-22
3.0082744557682e-23
5.5996660152319e-24
9.1191021416076e-25
1.2858814336107e-25
1.5514260052423e-26
1.5781901222015e-27
1.3277362368457e-28
8.9944699433816e-30
4.7166597165383e-31
1.7973365227838e-32
4.4296258820407e-34
5.3227305715811e-36
4.8529433850216e-39
8.1071179392557e-40
1.2361710163308e-40
1.7170861790984e-41
2.1676616593415e-42
2.4801432619695e-43
2.5635423096553e-44
2.3847242593679e-45
1.9876943231245e-46
1.4768209948325e-47
9.7214525961343e-49
5.6289867849981e-50
2.8423650269652e-51
1.2386143234619e-52
4.5981934330687e-54
1.4306734472901e-55
3.6521851028228e-57
7.4313687499971e-59
1.1561397191581e-60
1.2881764156533e-62
9.1289527358655e-65
3.0832521345716e-67
0
0
0
0
0
0
0
0
0
0
0
0
0
0
0
0
0
0
0
0
0
0
0
0
0
0
0
0
0
0
0
0
0
0
0
0
3.4247137311198e-33
2.9607823668393e-22
-5.0429141798495e-21
-8.0284999880199e-20
-4.9490211566308e-19
-1.9323108861842e-18
-5.4886167396618e-18
-1.174052103172e-17
-1.8590977060302e-17
-2.2623391986758e-17
-1.8026720623159e-17
-5.6955930591953e-17
-1.4918621893401e-16
0.23861307626033
0.72845723024537
0.96473176820159
0.96536684353535
0.73725875890075
0.29242490039916
3.2168532256545e-20
1.7026138629392e-19
1.8214593535107e-19
1.2070547038937e-19
6.1862342519852e-20
2.6634799791533e-20
9.9153909315265e-21
3.2269647046728e-21
9.2545696607377e-22
2.3499021481328e-22
5.2775915612616e-23
1.0423378680032e-23
1.7950812410917e-24
2.6687831130772e-25
3.3854089131776e-26
3.6116016187281e-27
3.1793257029673e-28
2.2492651276912e-29
1.2297864646446e-30
4.8795809673519e-32
1.2522281030883e-33
1.6047064875585e-35
1.010982447062e-37
1.7740987900932e-38
2.8426748086608e-39
4.1521003147219e-40
5.5172342352872e-41
6.6533704685364e-42
7.2610108306097e-43
7.1473980339071e-44
6.3214610610244e-45
5.0009564960187e-46
3.5202709331895e-47
2.1913611075002e-48
1.1975905078721e-49
5.6962330992699e-51
2.3333821894807e-52
8.1259490120052e-54
2.3667369170252e-55
5.6437784582049e-57
1.0705074643035e-58
1.5493705908479e-60
1.6028933335331e-62
1.0528134889406e-64
3.2902734946637e-67
0
0
0
0
0
0
0
0
0
0
0
0
0
0
0
0
0
0
0
0
0
0
0
0
0
0
0
0
0
0
0
0
0
0
0
0
1.4060098567402e-32
5.6801050679959e-22
-3.1252815109874e-21
-7.1923496072872e-20
-4.5941992989976e-19
-1.7616492911406e-18
-4.9315193809595e-18
-1.0780513940838e-17
-3.3242517014763e-17
-5.3283991978719e-17
-2.4199778047329e-17
9.7144514654701e-17
0.42278870181464
0.9973273738269
0.99999999999964
0.99999999999934
0.99999999999926
0.99999999999938
0.99890686892374
0.49474792444379
5.6064851814193e-20
5.7479236223492e-20
3.9959442723369e-20
2.1306668058243e-20
9.2290570808672e-21
3.3740167777717e-21
1.0658126077948e-21
2.9427444355582e-22
7.1188333966519e-23
1.5042100604538e-23
2.7572862102575e-24
4.3445591478977e-25
5.8186892078543e-26
6.531879069559e-27
6.0333582953881e-28
4.4681747155242e-29
2.5525069520371e-30
1.0569050006819e-31
2.8386164003317e-33
4.1085371721384e-35
9.4335569829613e-37
1.7291257895566e-37
2.8922211253528e-38
4.407884729469e-39
6.1094972551748e-40
7.6836914569933e-41
8.7447908029807e-42
8.9776153797968e-43
8.2829288617254e-44
6.8378872810786e-45
5.0251942230952e-46
3.2678429557289e-47
1.8670078139456e-48
9.291671978517e-50
3.9865314289847e-51
1.4557170917414e-52
4.4513260979897e-54
1.1159304573909e-55
2.2285305501977e-57
3.4010819554903e-59
3.7162479653772e-61
2.5824645885375e-63
8.5547110861257e-66
0
0
0
0
0
0
0
0
0
0
0
0
0
0
0
0
0
0
0
0
0
0
0
0
0
0
0
0
0
0
0
0
0
0
0
0
0
3.7273125359555e-32
8.5777649173806e-22
1.594013078875e-21
-3.2250169904642e-20
-2.5904851715971e-19
-1.0318802113454e-18
-3.1430735891432e-18
-8.2927119906624e-18
-4.1624435631754e-17
-5.3578656742314e-17
-2.6268193149369e-15
0.2501309224443
0.99894106128381
0.9999999999997
0.99999999999934
0.99999999999896
0.99999999999875
0.99999999999888
0.99999999999935
0.99841638469034
0.309747591264
1.0988622877106e-20
1.0422319944281e-20
5.9450750484353e-21
2.5694019904927e-21
9.2413326959541e-22
2.8373455760449e-22
7.5067800526037e-23
1.7156441817658e-23
3.3753210701326e-24
5.6734673546405e-25
8.0640300339785e-26
9.5648506908304e-27
9.3012848121999e-28
7.2312471411392e-29
4.3272414970849e-30
1.8753253230598e-31
5.3202360726094e-33
9.5892169411334e-35
5.4100519673882e-36
1.0337895291164e-36
1.8008687859017e-37
2.8559160741795e-38
4.1157893931106e-39
5.3784970156597e-40
6.3567208669637e-41
6.7736233255751e-42
6.4838697289317e-43
5.5514079963906e-44
4.2298833231363e-45
2.8511083674246e-46
1.688005120364e-47
8.7037392262911e-49
3.8681872201926e-50
1.4628739825646e-51
4.6318031904917e-53
1.2020751160442e-54
2.4844747209509e-56
3.9230503779188e-58
4.4335847321342e-60
3.185493315563e-62
1.090725663481e-64
0
0
0
0
0
0
0
0
0
0
0
0
0
0
0
0
0
0
0
0
0
0
0
0
0
0
0
0
0
0
0
0
0
0
0
0
0
0
7.1811811451721e-32
1.0446118545934e-21
7.3878222760863e-21
2.3807402343268e-20
2.5572157630366e-20
-6.601034530816e-20
-8.7047035059472e-19
-5.3896174445087e-18
-2.9671948541515e-17
-4.7009771294215e-17
6.9388939039072e-17
0.73779828535788
0.99999999999988
0.99999999999962
0.99999999999924
0.99999999999884
0.99999999999862
0.99999999999871
0.99999999999912
0.9999999999997
0.77786632912092
2.2100402567983e-21
2.3357754330506e-21
1.3657445234003e-21
5.9589602732351e-22
2.1047287334081e-22
6.2242097927207e-23
1.5615391552238e-23
3.3331810731729e-24
6.026212096019e-25
9.148520826453e-26
1.1523522239937e-26
1.1845990467342e-27
9.7014656650945e-29
6.1004055232609e-30
2.7782145500761e-31
8.4562557275569e-33
2.1244621186878e-34
2.1753890467819e-35
4.3318466889539e-36
7.8540321293119e-37
1.2949268633701e-37
1.938249264699e-38
2.6283497996541e-39
3.2208177326106e-40
3.555828225277e-41
3.5240574289815e-42
3.1219435419144e-43
2.4598332987123e-44
1.7135733866509e-45
1.0479514273368e-46
5.5785984783201e-48
2.5583202820568e-49
9.9783306749011e-51
3.2566794791972e-52
8.7074756563693e-54
1.8530262721418e-55
3.0109008515213e-57
3.4993401755263e-59
2.5840963444987e-61
9.0893805290085e-64
0
0
0
0
0
0
0
0
0
0
0
0
0
0
0
0
0
0
0
0
0
0
0
0
0
0
0
0
0
0
0
0
0
0
0
0
0
0
0
1.0728183685128e-31
1.0322862937067e-21
1.1718505327495e-20
7.2008404285107e-20
2.7487936759061e-19
7.462401966482e-19
1.0688888612986e-18
-2.6946979857745e-18
-1.2358560703883e-17
-2.5796539011701e-18
-1.1102230246252e-16
0.95913894337786
0.99999999999987
0.99999999999965
0.99999999999933
0.999999999999
0.99999999999881
0.99999999999888
0.99999999999921
0.99999999999967
0.96063007948111
4.0990573224146e-22
4.5455611680582e-22
2.7482088391646e-22
1.1843167775108e-22
4.0419545053555e-23
1.1364054584714e-23
2.6697329108934e-24
5.2464336526064e-25
8.5750795382975e-26
1.1542261949084e-26
1.2606097897872e-27
1.0921164941522e-28
7.2442620309229e-30
3.4861778358753e-31
1.1663614764958e-32
4.4323691651432e-34
6.5910643659228e-35
1.3682391187671e-35
2.5824911202777e-36
4.426859448918e-37
6.881181425218e-38
9.6801501229421e-39
1.2293938195285e-39
1.4054135089791e-40
1.4410678187441e-41
1.3197957529789e-42
1.0742568193858e-43
7.7254007988853e-45
4.8739551633575e-46
2.6748628720949e-47
1.2638219789443e-48
5.0753188052021e-50
1.7044058886791e-51
4.6859381726785e-53
1.0247072511464e-54
1.7097439999787e-56
2.0391088705329e-58
1.5441974559432e-60
5.5672455740177e-63
0
0
0
0
0
0
0
0
0
0
0
0
0
0
0
0
0
0
0
0
0
0
0
0
0
0
0
0
0
0
0
0
0
0
0
0
0
0
0
0
1.2946632884483e-31
8.1616790627268e-22
1.2868888736709e-20
9.4076328256726e-20
4.016628032519e-19
1.1624913293334e-18
2.1073437016222e-18
-8.0983169329281e-19
-1.6835465151812e-18
6.8788114137587e-18
0.00071928288879847
0.95592063083172
0.9999999999999
0.99999999999974
0.99999999999951
0.99999999999929
0.99999999999916
0.99999999999923
0.99999999999946
0.9999999999998
0.91905403298653
7.066908488753e-23
8.1721274423515e-23
4.8646557133444e-23
2.0244049138019e-23
6.5736597741492e-24
1.7333566088958e-24
3.7533405456588e-25
6.6716946298627e-26
9.6713157640057e-27
1.1292158578417e-27
1.0402336165072e-28
7.3139382833155e-30
3.7479617468585e-31
1.42624092051e-32
8.409486298898e-34
1.5740270826807e-34
3.4092392766894e-35
6.7033232347289e-36
1.1953271011775e-36
1.9303423294248e-37
2.8178805920051e-38
3.7096307235043e-39
4.3914488880182e-40
4.6585042556426e-41
4.4100756064431e-42
3.70735130404e-43
2.7513662716357e-44
1.7899837169515e-45
1.0122491955657e-46
4.9246486069694e-48
2.0349097650301e-49
7.0264783099979e-51
1.9848766116592e-52
4.4565242628148e-54
7.6290978372469e-56
9.328660924797e-58
7.238209696287e-60
2.6723107782634e-62
0
0
0
0
0
0
0
0
0
0
0
0
0
0
0
0
0
0
0
0
0
0
0
0
0
0
0
0
0
0
0
0
0
0
0
0
0
0
0
0
0
1.2981050453661e-31
4.879387815923e-22
1.0911287007901e-20
8.7666354415101e-20
3.9397290338687e-19
1.1738813741104e-18
2.2281189278294e-18
1.1069265481882e-19
3.2721763021159e-19
8.6667427683813e-18
6.2450045135165e-17
0.75101241025647
0.99999999999994
0.99999999999984
0.9999999999997
0.99999999999957
0.99999999999951
0.99999999999956
0.99999999999972
0.99999999999994
0.70964197110246
1.1682966534465e-23
1.3173420225206e-23
7.5320826320099e-24
2.9760509003839e-24
9.0595645406403e-25
2.2015309621667e-25
4.3114110225424e-26
6.7972846963721e-27
8.5504328569646e-28
8.4289956162604e-29
6.3200599224283e-30
3.4858192721748e-31
1.5753995012455e-32
1.4073401846735e-33
3.0554254698671e-34
6.912753763796e-35
1.4173181643137e-35
2.6313073125662e-36
4.4178771173473e-37
6.6963247013297e-38
9.1424912980486e-39
1.1212057717581e-39
1.2309023561276e-40
1.2047747402345e-41
1.0461931894608e-42
8.0132563599831e-44
5.3760265232653e-45
3.1325834445839e-46
1.5691110022271e-47
6.6704258729439e-49
2.3678098707751e-50
6.8709364690009e-52
1.5835264932432e-53
2.7805075091938e-55
3.4847782235887e-57
2.7694871578762e-59
1.0467277150262e-61
0
0
0
0
0
0
0
0
0
0
0
0
0
0
0
0
0
0
0
0
0
0
0
0
0
0
0
0
0
0
0
0
0
0
0
0
0
0
0
0
0
0
1.1037810358676e-31
1.7444876770613e-22
7.3364117645614e-21
6.4109144678941e-20
3.0240005648157e-19
9.3372355031277e-19
1.7993241388643e-18
4.9088883046518e-19
-9.1261874834577e-19
4.4059050311645e-18
-2.8516478272242e-17
0.28160023444273
0.9982059165119
0.99999999999992
0.99999999999985
0.99999999999978
0.99999999999976
0.99999999999981
0.99999999999991
0.99985801203919
0.29091920551101
1.7955566595954e-24
1.9190192394016e-24
1.0250104877695e-24
3.75737424974e-25
1.0511424234769e-25
2.3070329175134e-26
4.0065599657891e-27
5.4839189162367e-28
5.8332484650225e-29
4.7039431237954e-30
2.8388607603626e-31
1.6017843674722e-32
2.0515632338616e-33
4.9347327583504e-34
1.1672528208693e-34
2.4981985770614e-35
4.8334951026848e-36
8.4444956027341e-37
1.3300399166643e-37
1.8845484130179e-38
2.3956894152392e-39
2.7232915164206e-40
2.7571100765587e-41
2.4740868295357e-42
1.9564309898443e-43
1.353892065103e-44
8.1305718609398e-46
4.1938003733314e-47
1.834390158005e-48
6.6945848847071e-50
1.9956769994075e-51
4.7212726035044e-53
8.5032182324775e-55
1.0922852522266e-56
8.89128221218e-59
3.4400578488138e-61
0
0
0
0
0
0
0
0
0
0
0
0
0
0
0
0
0
0
0
0
0
0
0
0
0
0
0
0
0
0
0
0
0
0
0
0
0
0
0
0
0
0
0
8.0838920266777e-32
-3.6120536550243e-23
3.8562209633641e-21
3.7972405463724e-20
1.920245129442e-19
6.228180307954e-19
1.2124467346377e-18
6.2935217186877e-19
-1.0105653799273e-18
-1.0660866209374e-18
-1.3580836082318e-17
1.6653345369377e-16
0.48557166224479
0.99955156285169
0.99999999999995
0.99999999999992
0.99999999999992
0.99999999999995
0.99995496003939
0.55723128897609
0.0012078474349241
4.0975703337557e-25
3.4625958159796e-25
1.6237788081108e-25
5.3831570646212e-26
1.330914911807e-26
2.5130436091632e-27
3.6475392690873e-28
4.0677398390251e-29
3.4686612154142e-30
2.3260562705077e-31
1.6748723061587e-32
2.6738089439934e-33
6.7846171460326e-34
1.6736556091515e-34
3.7414035234399e-35
7.5499742593986e-36
1.373581686417e-36
2.2496656977237e-37
3.3102225319986e-38
4.3645793885187e-39
5.1400674936848e-40
5.3854567839366e-41
4.9961284454665e-42
4.0804815774889e-43
2.9137703356046e-44
1.8039649909879e-45
9.5846090879814e-47
4.3147138972447e-48
1.6192706728821e-49
4.9598599754842e-51
1.2046875898105e-52
2.2258386245935e-54
2.9309737562897e-56
2.444015605563e-58
9.6811844143895e-61
0
0
0
0
0
0
0
0
0
0
0
0
0
0
0
0
0
0
0
0
0
0
0
0
0
0
0
0
0
0
0
0
0
0
0
0
0
0
0
0
0
0
0
0
5.161667212583e-32
-1.2615392638816e-22
1.4546643985807e-21
1.8351286122137e-20
1.0417226885386e-19
3.5930835372115e-19
7.05266077458e-19
5.7017830358514e-19
-2.2919556379931e-19
-1.1954180867583e-18
5.8068994417718e-19
4.1081193619315e-18
3.3827107781548e-17
0.27813768784671
0.7502002763922
0.96339675153961
0.95175688491367
0.75125321334718
0.3295105913223
0.0017977042882051
2.6401862610016e-23
1.2869702312142e-23
3.4113888353555e-24
6.0558517278858e-25
8.2693287039911e-26
9.6816095679605e-27
9.8203592904349e-28
8.5128603230229e-29
6.2926368150048e-30
4.1753211215382e-31
2.9468915910365e-32
3.6021736629739e-33
8.2394098048604e-34
2.0799844034371e-34
4.8498969146769e-35
1.0207499593195e-35
1.9341227388427e-36
3.2947174627259e-37
5.0358915511596e-38
6.8890598491304e-39
8.4079933809371e-40
9.1197883283512e-41
8.7496200890035e-42
7.3830240053445e-43
5.441716247149e-44
3.4743305983003e-45
1.9019400374139e-46
8.8141593264323e-48
3.4024382357794e-49
1.0710860292185e-50
2.671540528122e-52
5.0648754632688e-54
6.8382183298376e-56
5.8423496627984e-58
2.3698571427399e-60
0
0
0
0
0
0
0
0
0
0
0
0
0
0
0
0
0
0
0
0
0
0
0
0
0
0
0
0
0
0
0
0
0
0
0
0
0
0
0
0
0
0
0
0
0
2.9013482168127e-32
-1.2998792622455e-22
2.3644139815428e-22
7.1426004545022e-21
4.9521823116453e-20
1.8298566443479e-19
3.6080636616416e-19
3.89691323147e-19
2.1650412374767e-19
-1.0311285156327e-19
2.1760222801769e-18
3.458744617079e-18
1.5708946439666e-18
3.9072237075349e-19
2.7290228369359e-20
-1.3454476561768e-20
0.0036664353629561
4.4589415483244e-22
6.3163029508335e-22
2.92231510878e-22
9.5680321903002e-23
2.2660601456639e-23
3.8996977763019e-24
5.0964702528346e-25
5.4031885177518e-26
4.7912574434498e-27
3.6520491672394e-28
2.4760469271978e-29
1.5745644919908e-30
9.5726534194058e-32
6.5683166370816e-33
9.5740657756618e-34
2.3037008318588e-34
5.5632044910568e-35
1.2187597156152e-35
2.4017021018223e-36
4.2509740215355e-37
6.7447303181689e-38
9.5685138584782e-39
1.2099126356538e-39
1.3583463953764e-40
1.3476406998311e-41
1.1748490234954e-42
8.9383832497801e-44
5.8855948892382e-45
3.3200212016617e-46
1.5841105118116e-47
6.2906764976053e-49
2.0355489007062e-50
5.214613109397e-52
1.0145941396205e-53
1.4047619971607e-55
1.2299417934787e-57
5.1099460576619e-60
0
0
0
0
0
0
0
0
0
0
0
0
0
0
0
0
0
0
0
0
0
0
0
0
0
0
0
0
0
0
0
0
0
0
0
0
0
0
0
0
0
0
0
0
0
0
1.4470099008085e-32
-9.5401799015314e-23
-1.761672533557e-22
2.1242025578244e-21
2.1121916690902e-20
8.3653059202003e-20
1.6531812174777e-19
2.1177772980995e-19
2.2858236322869e-19
1.9938690863101e-19
1.0233348436436e-18
1.2478727038961e-18
5.1401107857387e-19
5.9232722102047e-20
-2.4608847862236e-20
-8.0313630413941e-21
1.7537614013992e-21
2.1372542086535e-21
9.6971675155182e-22
3.0651735908644e-22
7.2426775174085e-23
1.2826857256266e-23
1.7313451453647e-24
1.8497645924731e-25
1.613525021526e-26
1.2018675471876e-27
8.1135638418077e-29
5.2191320982964e-30
3.0646756732536e-31
1.569323713405e-32
1.2157747445405e-33
2.3724113687212e-34
5.8190423859192e-35
1.3193139079085e-35
2.6919431434464e-36
4.9339659794095e-37
8.1050225675549e-38
1.1900164053972e-38
1.5565431615602e-39
1.8065825063594e-40
1.8517274493272e-41
1.6666294124453e-42
1.3081486513726e-43
8.8799323763075e-45
5.1600885251051e-46
2.5343841237527e-47
1.0352087490253e-48
3.4429380076669e-50
9.0586249658835e-52
1.8088609991756e-53
2.5684988354495e-55
2.3048452576727e-57
9.8089995674314e-60
0
0
0
0
0
0
0
0
0
0
0
0
0
0
0
0
0
0
0
0
0
0
0
0
0
0
0
0
0
0
0
0
0
0
0
0
0
0
0
0
0
0
0
0
0
0
0
6.4450194085512e-33
-5.6709871753582e-23
-2.0977985629481e-22
3.9041009325773e-22
8.2612742897413e-21
3.4822894543899e-20
6.9239290242432e-20
9.7473987941585e-20
1.2563573976068e-19
1.3188748091784e-19
2.9175493583743e-19
2.4481010677639e-19
5.7282897863649e-20
-1.1216542947085e-20
-3.8931024606809e-21
4.3174656547227e-21
3.8933576422152e-21
1.7985893296908e-21
5.8828626439867e-22
1.4469669123771e-22
2.6958642139871e-23
3.8347008558835e-24
4.2565637896232e-25
3.7929182126709e-26
2.8599857434174e-27
1.971808916702e-28
1.3087034211743e-29
7.7857025901157e-31
3.6751160707268e-32
1.8170231758294e-33
2.4040013559398e-34
5.7699548330468e-35
1.3396741553001e-35
2.8062719409511e-36
5.2897939587528e-37
8.9470109583784e-38
1.3535083501035e-38
1.8247648506366e-39
2.183145052915e-40
2.3064170832076e-41
2.1390898923147e-42
1.7295026477911e-43
1.2088048610981e-44
7.2288061642775e-46
3.6517777748789e-47
1.5332977931801e-48
5.238753019518e-50
1.4151035554228e-51
2.8992385728934e-53
4.2212639387364e-55
3.881868953784e-57
1.6922136269658e-59
0
0
0
0
0
0
0
0
0
0
0
0
0
0
0
0
0
0
0
0
0
0
0
0
0
0
0
0
0
0
0
0
0
0
0
0
0
0
0
0
0
0
0
0
0
0
0
0
2.5775402036142e-33
-2.8609384329512e-23
-1.3584779813721e-22
-2.7921383042608e-23
3.0135436726845e-21
1.3334553595057e-20
2.6952280932042e-20
4.03009636677e-20
5.4451494544466e-20
5.7858464099529e-20
6.8723808831517e-20
3.8174294513326e-20
8.3933762837792e-21
5.0793096080488e-21
6.6783187690631e-21
4.7869536078062e-21
2.2507812977951e-21
7.7603917951528e-22
2.0253456210271e-22
4.020076678369e-23
6.0909165661157e-24
7.1355822623972e-25
6.6289237476174e-26
5.1635880694793e-27
3.6866873712235e-28
2.5471234739024e-29
1.5611278838765e-30
7.3251085144464e-32
2.923506594622e-33
2.5111251288139e-34
5.6320839324428e-35
1.3225625726439e-35
2.8126564568129e-36
5.3999327550159e-37
9.325938794816e-38
1.4434051720944e-38
1.9937914327634e-39
2.4465611106183e-40
2.6529071129868e-41
2.5264818910199e-42
2.0980131393148e-43
1.5061315085069e-44
9.2501994071472e-46
4.7981691392718e-47
2.0680201151814e-48
7.2502726523631e-50
2.0087837980542e-51
4.2194454193844e-53
6.2957138915701e-55
5.9304657430798e-57
2.647219343776e-59
0
0
0
0
0
0
0
0
0
0
0
0
0
0
0
0
0
0
0
0
0
0
0
0
0
0
0
0
0
0
0
0
0
0
0
0
0
0
0
0
0
0
0
0
0
0
0
0
0
9.2978814998256e-34
-1.2536580858851e-23
-6.7262183569055e-23
-6.2355871949426e-23
1.0333511296108e-21
4.7150518446278e-21
9.7972522498329e-21
1.5451108643292e-20
2.1395335003493e-20
2.3371713983142e-20
2.1106587064257e-20
1.3351730433106e-20
8.7301457436666e-21
6.6754192940924e-21
4.2712237611819e-21
2.0599137667117e-21
7.5471225450287e-22
2.1117178974271e-22
4.5049606593662e-23
7.328336009946e-24
9.1589686576254e-25
8.9951649810285e-26
7.3458782749783e-27
5.4893356398541e-28
3.9712576441243e-29
2.5278212164986e-30
1.2112271241346e-31
4.4584397064602e-33
2.7058386765445e-34
5.5003570144079e-35
1.2969984508695e-35
2.7771526378815e-36
5.3838510781045e-37
9.4147513110273e-38
1.4790565408642e-38
2.0781717235709e-39
2.5986002537905e-40
2.8755483944087e-41
2.797895375977e-42
2.3758708638387e-43
1.7452398316381e-44
1.0972584496285e-45
5.827880067864e-47
2.5722634633858e-48
9.235037137663e-50
2.6199974075712e-51
5.6342935415898e-53
8.6052362849093e-55
8.2956933030354e-57
3.7889088948615e-59
0
0
0
0
0
0
0
0
0
0
0
0
0
0
0
0
0
0
0
0
0
0
0
0
0
0
0
0
0
0
0
0
0
0
0
0
0
0
0
0
0
0
0
0
0
0
0
0
0
0
3.036826561248e-34
-4.8371614974521e-24
-2.7676095023251e-23
-3.3050942152263e-23
3.3226051195069e-22
1.535086696269e-21
3.2959505459531e-21
5.4653370312992e-21
7.7737285730725e-21
8.8541117377013e-21
8.0809147593742e-21
6.2533563935095e-21
4.5196715918104e-21
2.8423401984096e-21
1.4321291901573e-21
5.6231269416464e-22
1.7004001255205e-22
3.9282662498637e-23
6.910544371713e-24
9.2954950672155e-25
9.7571914102415e-26
8.4534910906527e-27
6.671607588891e-28
5.0788008400647e-29
3.3752846701035e-30
1.6716898789371e-31
6.0308499858868e-33
2.8831914721606e-34
5.2923264909411e-35
1.2563648760772e-35
2.7075994349005e-36
5.2868576574028e-37
9.3229569732665e-38
1.4791581375538e-38
2.1023117782315e-39
2.6634596530934e-40
2.9908211048214e-41
2.9571861250326e-42
2.554988550516e-43
1.9116206475618e-44
1.2252268996718e-45
6.6386899178319e-47
2.9907808560675e-48
1.0964235132875e-49
3.1771381163634e-51
6.980060104885e-53
1.0892562147275e-54
1.0730261863243e-56
5.008130207741e-59
0
0
0
0
0
0
0
0
0
0
0
0
0
0
0
0
0
0
0
0
0
0
0
0
0
0
0
0
0
0
0
0
0
0
0
0
0
0
0
0
0
0
0
0
0
0
0
0
0
0
0
9.0098076466258e-35
-1.6580586770549e-24
-9.7971377065724e-24
-1.2404940891854e-23
9.9186457440522e-23
4.5670453253969e-22
1.0094168697911e-21
1.7388490274401e-21
2.5160360418583e-21
2.9217041601915e-21
2.7326466247155e-21
2.1482822937283e-21
1.4263277238396e-21
7.6984499916664e-22
3.2780255413638e-22
1.0806871883592e-22
2.7246938662369e-23
5.2220060267154e-24
7.6219001227088e-25
8.6321742964267e-26
8.0156655691724e-27
6.7356331590221e-28
5.4201068473278e-29
3.7769625479998e-30
1.9474584506164e-31
7.0857230261005e-33
2.895469943752e-34
4.8543680850846e-35
1.1708927311346e-35
2.5570619660114e-36
5.0513870320469e-37
9.0034642859105e-38
1.4432705231525e-38
2.0727386674447e-39
2.6546150100492e-40
3.0154991463e-41
3.0188152150256e-42
2.643298723674e-43
2.0061995769075e-44
1.3055795300802e-45
7.1887271120475e-47
3.2935741013703e-48
1.2287577222787e-49
3.6256592101315e-51
8.1152931004214e-53
1.2908586323648e-54
1.2967172273642e-56
6.1733363961408e-59
0
0
0
0
0
0
0
0
0
0
0
0
0
0
0
0
0
0
0
0
0
0
0
0
0
0
0
0
0
0
0
0
0
0
0
0
0
0
0
0
0
0
0
0
0
0
0
0
0
0
0
0
2.4347536689251e-35
-5.0802308540704e-25
-3.038360792294e-24
-3.7913479495224e-24
2.7146797339598e-23
1.2303112047643e-22
2.7689296540704e-22
4.8574447906121e-22
7.0022526127887e-22
8.0209964556722e-22
7.3222667488907e-22
5.4156829257954e-22
3.220933827522e-22
1.5108345012446e-22
5.4895184032303e-23
1.5240566028726e-23
3.2082626876595e-24
5.1233295792395e-25
6.3166917967881e-26
6.3453364831407e-27
5.7203575599926e-28
4.887606965463e-29
3.5850878224275e-30
1.9346604856463e-31
7.2103994097519e-33
2.6549491909555e-34
4.1172163743932e-35
1.0194984269629e-35
2.2772150171022e-36
4.5880767559055e-37
8.3205774792574e-38
1.3545271354809e-38
1.9726714103423e-39
2.5594509977441e-40
2.9435926422772e-41
2.982749853841e-42
2.6436303647746e-43
2.0314723707742e-44
1.3390578415037e-45
7.4718740851501e-47
3.4711738246686e-48
1.3139315278182e-49
3.9361256579383e-51
8.9505718913804e-53
1.447392366817e-54
1.4791004208909e-56
7.1667799262864e-59
0
0
0