/*--------------------------------*- C++ -*----------------------------------*\
  =========                 |
  \\      /  F ield         | OpenFOAM: The Open Source CFD Toolbox
   \\    /   O peration     | Website:  https://openfoam.org
    \\  /    A nd           | Version:  7
     \\/     M anipulation  |
\*---------------------------------------------------------------------------*/
FoamFile
{
    version     2.0;
    format      ascii;
    class       volScalarField;
    location    "0.055";
    object      T;
}
// * * * * * * * * * * * * * * * * * * * * * * * * * * * * * * * * * * * * * //

dimensions      [0 0 0 1 0 0 0];

internalField   nonuniform List<scalar> 
12225
(
1.00689
1.0041
1.00171
1.00089
1.00043
1.00012
0.999964
0.999897
0.999864
0.99984
0.999819
0.999778
0.999684
0.999441
0.998826
0.99734
0.993437
0.984193
0.995136
0.994812
0.996745
0.998334
0.999127
0.999464
0.999644
0.999763
0.999837
0.999876
0.999888
0.999871
0.999791
0.999564
0.998975
0.997557
0.994015
0.985745
0.999619
1.00005
1.00023
1.00028
1.0002
1.00008
0.999991
0.999952
0.999932
0.999914
0.999891
0.999852
0.99976
0.999536
0.998983
0.997678
0.994587
0.987941
1.00032
1.00017
0.999777
0.999749
0.999819
0.999835
0.999837
0.99985
0.999863
0.999868
0.999862
0.999836
0.999758
0.999558
0.999063
0.997916
0.995343
0.990171
1.00014
0.999947
0.999658
0.999701
0.999818
0.999857
0.999862
0.999871
0.99988
0.999883
0.999877
0.999851
0.999779
0.999597
0.999162
0.998184
0.996106
0.992179
1.00002
0.999951
0.999769
0.999773
0.999847
0.999872
0.999872
0.999877
0.999883
0.999886
0.999879
0.999856
0.999791
0.999632
0.999261
0.998455
0.996824
0.993896
0.999995
1
0.999864
0.999822
0.999858
0.999877
0.999879
0.999882
0.999887
0.99989
0.999885
0.999863
0.999807
0.999672
0.999364
0.998719
0.99747
0.995319
0.999995
1.00002
0.999917
0.999858
0.999872
0.999888
0.999889
0.999891
0.999895
0.999896
0.999892
0.999873
0.999825
0.999713
0.999466
0.998963
0.998027
0.996469
0.999995
1.00002
0.999951
0.999894
0.999893
0.999902
0.999902
0.999903
0.999904
0.999905
0.9999
0.999884
0.999844
0.999754
0.99956
0.99918
0.998493
0.99738
0.999995
1.00002
0.999976
0.999926
0.999916
0.999918
0.999916
0.999915
0.999915
0.999915
0.99991
0.999896
0.999863
0.999793
0.999645
0.999364
0.998871
0.998088
0.999996
1.00002
0.999992
0.999953
0.999938
0.999935
0.999931
0.999927
0.999926
0.999925
0.99992
0.999908
0.999883
0.999829
0.999719
0.999517
0.99917
0.998629
0.999997
1.00001
1
0.999971
0.999954
0.999949
0.999944
0.99994
0.999937
0.999934
0.99993
0.999921
0.9999
0.999859
0.999777
0.999629
0.999382
0.999001
0.999997
1.00001
1.00001
0.999984
0.999968
0.999962
0.999957
0.999952
0.999948
0.999944
0.999941
0.999933
0.999916
0.999885
0.999826
0.99972
0.999548
0.999284
0.999997
1.00001
1.00001
0.999993
0.999981
0.999974
0.999968
0.999964
0.99996
0.999956
0.999953
0.999946
0.999933
0.999911
0.999872
0.999801
0.999689
0.999519
0.999998
1.00001
1.00001
1
0.999991
0.999985
0.999981
0.999977
0.999972
0.999968
0.999964
0.999959
0.999951
0.999937
0.99991
0.999867
0.9998
0.999701
0.999998
1.00001
1.00001
1
0.999998
0.999994
0.999991
0.999988
0.999983
0.999979
0.999975
0.999972
0.999967
0.999958
0.999942
0.999917
0.999881
0.999828
0.999998
1.00001
1.00001
1.00001
1
0.999999
0.999998
0.999996
0.999992
0.999989
0.999985
0.999982
0.999979
0.999975
0.999966
0.999953
0.999935
0.99991
0.999999
1.00001
1.00001
1.00001
1
1
1
0.999998
0.999995
0.999993
0.999993
0.999991
0.999987
0.999983
0.999979
0.999975
0.999967
0.999956
1
1.00001
1.00001
1.00001
1
1
1
0.999999
0.999998
0.999996
0.999994
0.999992
0.99999
0.999987
0.999986
0.999983
0.999979
0.999974
0.999999
1.00001
1.00001
1.00001
1.00001
1
0.999998
0.999996
0.999993
0.999991
0.999989
0.999987
0.999985
0.999982
0.999981
0.999978
0.999976
0.999973
0.999997
1.00001
1.00001
1.00001
1
0.999998
0.999993
0.999988
0.999985
0.999982
0.999979
0.999976
0.999973
0.999972
0.999971
0.999968
0.999967
0.999965
0.999997
1.00001
1.00002
1.00001
0.999995
0.999988
0.999982
0.999975
0.999969
0.999965
0.999964
0.999963
0.99996
0.999959
0.999958
0.999958
0.999957
0.999955
0.999996
1.00003
1.00003
0.999996
0.999972
0.999966
0.999961
0.999956
0.999952
0.999949
0.999948
0.999947
0.999946
0.999945
0.999945
0.999944
0.999944
0.999944
0.999989
1.00005
1.00004
0.999983
0.999948
0.999938
0.999932
0.999929
0.999929
0.999931
0.999932
0.999933
0.999932
0.999933
0.999934
0.999934
0.999935
0.999935
0.99999
1.00004
0.999992
0.999937
0.999931
0.999929
0.999917
0.999909
0.999908
0.99991
0.999912
0.999915
0.999917
0.999918
0.999919
0.999921
0.999924
0.999925
1.00013
1.00009
0.999825
0.999756
0.999837
0.999896
0.999909
0.999912
0.999916
0.999918
0.99992
0.999921
0.999922
0.999922
0.999923
0.999924
0.999925
0.999926
1.0005
1.00053
0.999952
0.999665
0.999667
0.999718
0.999754
0.999789
0.99982
0.999844
0.999861
0.999875
0.999885
0.999893
0.9999
0.999905
0.999909
0.999915
1.00004
1.0008
1.00096
1.0008
1.00056
1.00034
1.00018
1.00009
1.00003
0.999996
0.99997
0.999954
0.999943
0.999935
0.99993
0.999925
0.999921
0.999921
0.994604
0.993791
0.995838
0.997661
0.998662
0.999144
0.999416
0.999594
0.99971
0.999782
0.999829
0.999863
0.999887
0.999905
0.999918
0.999928
0.999933
0.99993
1.00635
1.00419
1.00178
1.00096
1.00054
1.00023
1.00005
0.999977
0.999939
0.999915
0.9999
0.999892
0.999888
0.999886
0.999885
0.999886
0.999888
0.999899
0.544154
0.544124
0.54403
0.543892
0.54372
0.543513
0.543268
0.542988
0.542675
0.542331
0.541958
0.541556
0.541126
0.540671
0.540193
0.539694
0.539176
0.538642
0.538096
0.53754
0.536977
0.536412
0.535847
0.535286
0.534732
0.534189
0.533659
0.533143
0.532644
0.532165
0.531716
0.531321
0.531035
0.530952
0.530896
0.530735
0.530608
0.530481
0.53037
0.530283
0.5302
0.530186
0.530267
0.53036
0.530508
0.530746
0.531025
0.531354
0.53173
0.532153
0.532622
0.533133
0.533687
0.534281
0.534915
0.535586
0.536293
0.537035
0.537809
0.538615
0.53945
0.540313
0.541202
0.542116
0.543052
0.544009
0.544985
0.545978
0.546987
0.54801
0.549046
0.550092
0.551148
0.552211
0.553281
0.554356
0.555434
0.556515
0.557596
0.558678
0.559758
0.560835
0.561909
0.562979
0.564043
0.565101
0.566152
0.567195
0.568229
0.569254
0.570269
0.571273
0.572266
0.573246
0.574214
0.575167
0.576105
0.577025
0.577933
0.578827
0.579705
0.580567
0.581412
0.582239
0.583049
0.58384
0.584612
0.585364
0.586097
0.586809
0.587501
0.588171
0.58882
0.589447
0.590051
0.590632
0.591189
0.591722
0.592231
0.592715
0.593172
0.593604
0.594008
0.594384
0.594731
0.595049
0.595338
0.595597
0.595826
0.596024
0.59619
0.596324
0.596426
0.596494
0.596528
0.596528
0.596492
0.596421
0.596313
0.596168
0.595985
0.595764
0.595503
0.595201
0.594858
0.594472
0.594043
0.593569
0.593051
0.592487
0.591877
0.59122
0.590514
0.58976
0.588956
0.588102
0.587197
0.58624
0.58523
0.584168
0.58305
0.581877
0.58064
0.579331
0.577952
0.576513
0.575017
0.573464
0.571855
0.570188
0.568462
0.566676
0.564831
0.562925
0.560963
0.558944
0.556895
0.554752
0.552818
0.550094
0.545356
0.545316
0.545239
0.545117
0.544959
0.544764
0.544531
0.544261
0.543952
0.543607
0.543228
0.542817
0.542379
0.541916
0.541429
0.540923
0.5404
0.539863
0.539315
0.538759
0.5382
0.53764
0.537085
0.536539
0.536008
0.535496
0.535011
0.534557
0.534141
0.533764
0.533425
0.533111
0.532811
0.532396
0.531929
0.531608
0.531373
0.53122
0.531135
0.531102
0.531134
0.531203
0.531275
0.531417
0.531629
0.531866
0.532144
0.532467
0.532837
0.533253
0.533714
0.534218
0.534765
0.535352
0.535978
0.536643
0.537343
0.538078
0.538846
0.539645
0.540473
0.54133
0.542212
0.543119
0.544048
0.544999
0.545968
0.546955
0.547958
0.548975
0.550005
0.551046
0.552096
0.553154
0.554218
0.555288
0.556361
0.557437
0.558514
0.559591
0.560666
0.56174
0.56281
0.563876
0.564936
0.56599
0.567037
0.568076
0.569107
0.570128
0.571139
0.57214
0.573128
0.574105
0.575069
0.576021
0.576959
0.577885
0.578796
0.579689
0.580565
0.581424
0.582267
0.583091
0.583898
0.584686
0.585455
0.586204
0.586934
0.587643
0.588332
0.588999
0.589644
0.590268
0.590868
0.591445
0.591999
0.592528
0.593033
0.593512
0.593966
0.594393
0.594792
0.595163
0.595505
0.595818
0.596102
0.596356
0.596579
0.596771
0.596931
0.597059
0.597154
0.597216
0.597243
0.597236
0.597193
0.597114
0.596999
0.596846
0.596655
0.596425
0.596155
0.595844
0.595492
0.595096
0.594657
0.594173
0.593645
0.59307
0.592449
0.59178
0.591063
0.590297
0.589481
0.588614
0.587696
0.586726
0.585703
0.584627
0.583495
0.582307
0.581064
0.579768
0.578415
0.577004
0.575534
0.574006
0.57242
0.570774
0.569069
0.567303
0.565476
0.563589
0.561646
0.559646
0.557613
0.555502
0.553532
0.551091
0.547836
0.547759
0.547662
0.547531
0.547362
0.547152
0.546901
0.546611
0.546285
0.545923
0.545528
0.545102
0.544649
0.54417
0.543669
0.543148
0.542611
0.54206
0.541499
0.540931
0.54036
0.53979
0.539225
0.538668
0.538124
0.537595
0.537086
0.536597
0.53613
0.535685
0.535264
0.534872
0.534514
0.53418
0.533872
0.533611
0.533394
0.533227
0.533114
0.533057
0.533059
0.53312
0.533231
0.533387
0.533584
0.533818
0.534096
0.534418
0.534785
0.535195
0.535649
0.536146
0.536684
0.537263
0.53788
0.538535
0.539226
0.539952
0.540711
0.5415
0.54232
0.543168
0.544042
0.54494
0.545862
0.546804
0.547767
0.548747
0.549743
0.550755
0.551779
0.552814
0.553859
0.554913
0.555974
0.557041
0.558111
0.559185
0.56026
0.561336
0.562411
0.563484
0.564555
0.565621
0.566683
0.567739
0.568788
0.56983
0.570864
0.571889
0.572904
0.573909
0.574903
0.575885
0.576855
0.577811
0.578754
0.579682
0.580596
0.581495
0.582378
0.583245
0.584094
0.584927
0.585741
0.586536
0.587313
0.588071
0.588808
0.589526
0.590223
0.590898
0.591552
0.592183
0.592792
0.593378
0.593939
0.594477
0.594989
0.595477
0.595938
0.596372
0.596779
0.597157
0.597507
0.597827
0.598118
0.598378
0.598608
0.598806
0.598972
0.599106
0.599206
0.599273
0.599305
0.599302
0.599263
0.599188
0.599075
0.598926
0.598737
0.598509
0.598241
0.597931
0.597579
0.597184
0.596745
0.596261
0.595732
0.595156
0.594533
0.593862
0.593143
0.592373
0.591554
0.590684
0.589762
0.588788
0.587761
0.586679
0.585544
0.584353
0.583108
0.581811
0.580461
0.579054
0.577589
0.576065
0.574482
0.572839
0.571137
0.569373
0.567548
0.565662
0.563718
0.561716
0.559675
0.557562
0.555549
0.553251
0.551553
0.551438
0.551314
0.551164
0.550975
0.550742
0.550468
0.550155
0.549805
0.54942
0.549002
0.548555
0.54808
0.54758
0.547058
0.546517
0.54596
0.54539
0.544811
0.544226
0.543639
0.543053
0.542472
0.541899
0.541338
0.540792
0.540264
0.539756
0.539271
0.538812
0.538383
0.537988
0.537627
0.537298
0.537004
0.536752
0.536543
0.536379
0.536261
0.53619
0.536169
0.536198
0.536274
0.5364
0.536574
0.536792
0.537056
0.537364
0.537717
0.538114
0.538554
0.539036
0.539559
0.540123
0.540725
0.541364
0.54204
0.54275
0.543494
0.544269
0.545074
0.545907
0.546767
0.547652
0.548561
0.549491
0.550442
0.551411
0.552397
0.553399
0.554414
0.555441
0.556479
0.557526
0.558581
0.559643
0.560709
0.56178
0.562852
0.563927
0.565001
0.566074
0.567145
0.568213
0.569277
0.570336
0.571389
0.572436
0.573475
0.574506
0.575528
0.57654
0.577542
0.578532
0.579511
0.580477
0.58143
0.58237
0.583295
0.584205
0.585099
0.585978
0.58684
0.587685
0.588513
0.589322
0.590113
0.590884
0.591636
0.592368
0.593079
0.593769
0.594437
0.595084
0.595708
0.596308
0.596885
0.597437
0.597964
0.598466
0.598942
0.599391
0.599812
0.600204
0.600568
0.600902
0.601206
0.60148
0.601722
0.601933
0.602111
0.602256
0.602368
0.602446
0.602488
0.602496
0.602467
0.602401
0.602297
0.602156
0.601975
0.601754
0.601492
0.601189
0.600842
0.600452
0.600017
0.599537
0.599011
0.598438
0.597817
0.597148
0.59643
0.595661
0.594842
0.593972
0.59305
0.592075
0.591046
0.589963
0.588826
0.587634
0.586387
0.585087
0.583732
0.58232
0.58085
0.579322
0.577735
0.576088
0.574381
0.572612
0.570782
0.56889
0.566938
0.564926
0.562867
0.560738
0.558684
0.556426
0.556485
0.556332
0.556183
0.556015
0.555804
0.555548
0.555248
0.554908
0.554531
0.554118
0.553672
0.553196
0.552693
0.552165
0.551616
0.551048
0.550465
0.549871
0.549267
0.548659
0.548049
0.54744
0.546837
0.546243
0.545661
0.545095
0.544547
0.544021
0.54352
0.543048
0.542606
0.542198
0.541824
0.541485
0.541183
0.540923
0.540705
0.540531
0.540402
0.540319
0.540282
0.540293
0.540351
0.540456
0.540608
0.540806
0.541049
0.541338
0.541672
0.542049
0.542469
0.542931
0.543433
0.543976
0.544558
0.545177
0.545832
0.546522
0.547245
0.548
0.548785
0.5496
0.550442
0.551309
0.552201
0.553115
0.55405
0.555004
0.555976
0.556964
0.557967
0.558984
0.560011
0.56105
0.562096
0.563151
0.564211
0.565276
0.566345
0.567416
0.568488
0.56956
0.570631
0.571701
0.572766
0.573828
0.574886
0.575937
0.576981
0.578019
0.579048
0.580068
0.581079
0.582079
0.583067
0.584045
0.585009
0.585961
0.586899
0.587823
0.588731
0.589625
0.590502
0.591362
0.592205
0.593031
0.593838
0.594627
0.595396
0.596145
0.596874
0.597582
0.598268
0.598933
0.599574
0.600193
0.600788
0.601359
0.601904
0.602424
0.602918
0.603384
0.603822
0.604232
0.604613
0.604964
0.605284
0.605574
0.605832
0.606059
0.606252
0.606412
0.606538
0.606629
0.606685
0.606704
0.606687
0.606633
0.60654
0.606409
0.606238
0.606026
0.605772
0.605476
0.605136
0.604752
0.604323
0.603847
0.603325
0.602756
0.602138
0.601471
0.600755
0.599987
0.599169
0.598299
0.597376
0.596399
0.595369
0.594284
0.593145
0.59195
0.5907
0.589395
0.588035
0.586617
0.585142
0.583608
0.582015
0.580362
0.578649
0.576874
0.575037
0.573137
0.571175
0.56915
0.567074
0.564926
0.562839
0.560565
0.56265
0.562467
0.562295
0.562107
0.561874
0.561593
0.561265
0.560896
0.560487
0.560043
0.559564
0.559056
0.55852
0.55796
0.557378
0.556779
0.556166
0.555541
0.554908
0.554271
0.553634
0.552999
0.55237
0.551752
0.551146
0.550558
0.549989
0.549443
0.548924
0.548433
0.547974
0.547549
0.547158
0.546803
0.546486
0.54621
0.545976
0.545785
0.545639
0.545538
0.545483
0.545474
0.545511
0.545594
0.545723
0.545898
0.546118
0.546382
0.54669
0.547042
0.547436
0.547872
0.548349
0.548866
0.549421
0.550014
0.550642
0.551306
0.552004
0.552734
0.553495
0.554285
0.555103
0.555948
0.556817
0.55771
0.558625
0.55956
0.560513
0.561484
0.562471
0.563472
0.564486
0.565511
0.566546
0.56759
0.568641
0.569698
0.570759
0.571825
0.572892
0.573961
0.57503
0.576098
0.577165
0.578228
0.579287
0.580342
0.581391
0.582434
0.58347
0.584497
0.585516
0.586526
0.587525
0.588513
0.589489
0.590453
0.591405
0.592342
0.593266
0.594174
0.595067
0.595944
0.596804
0.597647
0.598473
0.599279
0.600067
0.600835
0.601583
0.602311
0.603017
0.603701
0.604363
0.605001
0.605616
0.606207
0.606773
0.607313
0.607826
0.608312
0.60877
0.609199
0.609599
0.609968
0.610307
0.610615
0.610891
0.611134
0.611344
0.611521
0.611662
0.611768
0.611839
0.611872
0.611869
0.611827
0.611746
0.611626
0.611465
0.611263
0.611018
0.61073
0.610398
0.61002
0.609597
0.609127
0.60861
0.608044
0.607429
0.606765
0.606049
0.605283
0.604465
0.603594
0.60267
0.601692
0.600659
0.599572
0.598429
0.597231
0.595977
0.594667
0.5933
0.591877
0.590395
0.588856
0.587256
0.585597
0.583877
0.582095
0.580251
0.578342
0.57637
0.574332
0.572239
0.570072
0.567954
0.565638
0.570079
0.569876
0.569684
0.569475
0.569218
0.568909
0.568552
0.568151
0.567709
0.56723
0.566717
0.566172
0.5656
0.565004
0.564387
0.563752
0.563104
0.562445
0.56178
0.561111
0.560443
0.559779
0.559122
0.558476
0.557845
0.557231
0.556638
0.55607
0.555528
0.555016
0.554535
0.554088
0.553676
0.553301
0.552964
0.552668
0.552413
0.5522
0.552032
0.551908
0.551828
0.551794
0.551805
0.551862
0.551963
0.552109
0.5523
0.552534
0.552812
0.553133
0.553496
0.5539
0.554345
0.55483
0.555353
0.555914
0.556511
0.557143
0.557809
0.558508
0.559238
0.559999
0.560788
0.561604
0.562446
0.563312
0.5642
0.565111
0.566041
0.566989
0.567954
0.568935
0.56993
0.570937
0.571956
0.572985
0.574022
0.575067
0.576118
0.577173
0.578233
0.579295
0.580358
0.581422
0.582485
0.583547
0.584606
0.585661
0.586712
0.587758
0.588798
0.589832
0.590857
0.591874
0.592881
0.593879
0.594866
0.595842
0.596805
0.597756
0.598693
0.599616
0.600525
0.601417
0.602294
0.603154
0.603997
0.604822
0.605628
0.606416
0.607184
0.607931
0.608657
0.609361
0.610044
0.610703
0.611338
0.61195
0.612536
0.613097
0.613631
0.614137
0.614615
0.615065
0.615484
0.615874
0.616232
0.616559
0.616853
0.617115
0.617343
0.617536
0.617694
0.617816
0.617902
0.617951
0.617961
0.617933
0.617865
0.617756
0.617607
0.617415
0.61718
0.6169
0.616576
0.616206
0.615789
0.615324
0.614811
0.614249
0.613638
0.612975
0.612262
0.611496
0.610678
0.609806
0.608881
0.607901
0.606865
0.605775
0.604628
0.603426
0.602167
0.600851
0.599479
0.598049
0.596561
0.595014
0.593408
0.591742
0.590015
0.588225
0.586373
0.584455
0.582473
0.580423
0.578314
0.576127
0.57398
0.571614
0.578822
0.578603
0.578392
0.578161
0.577879
0.577541
0.577153
0.576719
0.576242
0.575726
0.575175
0.574592
0.573981
0.573346
0.57269
0.572017
0.571331
0.570636
0.569935
0.569231
0.56853
0.567833
0.567145
0.566469
0.565809
0.565167
0.564547
0.563952
0.563384
0.562846
0.56234
0.561868
0.561431
0.56103
0.560668
0.560346
0.560065
0.559826
0.559629
0.559476
0.559368
0.559303
0.559283
0.559307
0.559375
0.559487
0.559643
0.559842
0.560084
0.560368
0.560694
0.561061
0.561468
0.561914
0.562399
0.562921
0.56348
0.564074
0.564703
0.565364
0.566058
0.566782
0.567535
0.568316
0.569124
0.569957
0.570814
0.571693
0.572593
0.573512
0.57445
0.575405
0.576375
0.577359
0.578355
0.579363
0.580381
0.581408
0.582443
0.583483
0.584529
0.585579
0.586632
0.587687
0.588743
0.589798
0.590852
0.591904
0.592953
0.593998
0.595039
0.596073
0.597102
0.598123
0.599136
0.60014
0.601134
0.602118
0.603091
0.604052
0.605001
0.605936
0.606858
0.607764
0.608656
0.609531
0.61039
0.611231
0.612055
0.61286
0.613646
0.614411
0.615156
0.61588
0.616582
0.617261
0.617916
0.618548
0.619154
0.619735
0.620289
0.620816
0.621314
0.621783
0.622222
0.622631
0.623009
0.623355
0.623668
0.623947
0.624193
0.624403
0.624578
0.624717
0.624818
0.624881
0.624906
0.624891
0.624836
0.62474
0.624602
0.62442
0.624195
0.623925
0.623608
0.623245
0.622835
0.622376
0.621868
0.62131
0.620701
0.620041
0.619329
0.618564
0.617745
0.616873
0.615946
0.614963
0.613925
0.612831
0.611681
0.610473
0.609209
0.607888
0.606509
0.605073
0.603578
0.602024
0.600411
0.598737
0.597003
0.595206
0.593345
0.591419
0.589427
0.587365
0.585242
0.583036
0.580863
0.578448
0.588937
0.588704
0.588474
0.588219
0.58791
0.587542
0.587122
0.586652
0.586139
0.585584
0.584994
0.58437
0.583718
0.583042
0.582345
0.581632
0.580906
0.580171
0.579431
0.57869
0.577952
0.57722
0.576497
0.575788
0.575096
0.574422
0.573772
0.573146
0.572548
0.57198
0.571444
0.570942
0.570475
0.570044
0.569652
0.569299
0.568986
0.568714
0.568485
0.568298
0.568154
0.568053
0.567996
0.567982
0.568011
0.568084
0.568199
0.568356
0.568556
0.568797
0.569079
0.569402
0.569764
0.570166
0.570606
0.571083
0.571597
0.572146
0.57273
0.573347
0.573997
0.574678
0.575388
0.576127
0.576894
0.577686
0.578504
0.579344
0.580207
0.581091
0.581994
0.582915
0.583853
0.584806
0.585774
0.586754
0.587745
0.588747
0.589759
0.590778
0.591803
0.592835
0.593871
0.59491
0.595951
0.596994
0.598037
0.59908
0.600121
0.601159
0.602194
0.603225
0.604251
0.60527
0.606284
0.607289
0.608286
0.609274
0.610251
0.611218
0.612174
0.613117
0.614048
0.614964
0.615867
0.616754
0.617625
0.61848
0.619317
0.620136
0.620937
0.621718
0.622479
0.62322
0.623938
0.624634
0.625308
0.625957
0.626582
0.62718
0.627753
0.628297
0.628814
0.629302
0.629759
0.630186
0.630582
0.630945
0.631276
0.631572
0.631835
0.632061
0.632252
0.632406
0.632522
0.6326
0.632638
0.632637
0.632594
0.63251
0.632382
0.632211
0.631995
0.631733
0.631425
0.631069
0.630665
0.630211
0.629708
0.629153
0.628548
0.62789
0.627179
0.626415
0.625596
0.624723
0.623794
0.62281
0.621769
0.620671
0.619516
0.618304
0.617035
0.615708
0.614323
0.61288
0.611378
0.609818
0.608197
0.606516
0.604774
0.60297
0.601102
0.599168
0.597167
0.595095
0.592959
0.590737
0.588542
0.586083
0.60049
0.600244
0.599993
0.599712
0.599374
0.598975
0.59852
0.598014
0.597462
0.596867
0.596235
0.595569
0.594874
0.594154
0.593414
0.592657
0.591888
0.591111
0.59033
0.589549
0.588771
0.588
0.58724
0.586494
0.585765
0.585056
0.584371
0.58371
0.583078
0.582475
0.581905
0.581368
0.580866
0.5804
0.579972
0.579582
0.579232
0.578923
0.578655
0.578428
0.578243
0.5781
0.578
0.577941
0.577925
0.577952
0.578019
0.578129
0.57828
0.578471
0.578703
0.578975
0.579286
0.579636
0.580024
0.580449
0.58091
0.581407
0.581939
0.582504
0.583102
0.583731
0.584391
0.58508
0.585797
0.586541
0.58731
0.588104
0.588922
0.589761
0.59062
0.591499
0.592397
0.59331
0.59424
0.595184
0.596141
0.597109
0.598088
0.599077
0.600074
0.601079
0.602089
0.603104
0.604124
0.605146
0.60617
0.607195
0.60822
0.609244
0.610266
0.611286
0.612302
0.613313
0.614319
0.615319
0.616311
0.617296
0.618272
0.619239
0.620195
0.62114
0.622074
0.622994
0.623902
0.624795
0.625673
0.626535
0.627382
0.62821
0.629021
0.629814
0.630586
0.631339
0.63207
0.632779
0.633466
0.63413
0.634769
0.635382
0.635969
0.636529
0.637061
0.637564
0.638037
0.638479
0.63889
0.639269
0.639615
0.639926
0.640203
0.640445
0.640649
0.640817
0.640946
0.641037
0.641088
0.641098
0.641067
0.640993
0.640876
0.640714
0.640506
0.640252
0.639951
0.639602
0.639203
0.638755
0.638256
0.637705
0.637102
0.636446
0.635737
0.634973
0.634154
0.63328
0.63235
0.631363
0.630319
0.629218
0.62806
0.626843
0.625569
0.624236
0.622845
0.621396
0.619888
0.618321
0.616694
0.615006
0.613258
0.611447
0.609572
0.607631
0.605623
0.603543
0.601397
0.599162
0.596949
0.594453
0.613555
0.613295
0.613022
0.612713
0.612344
0.611911
0.611419
0.610874
0.610281
0.609644
0.608968
0.608257
0.607516
0.60675
0.605963
0.60516
0.604346
0.603523
0.602697
0.601872
0.60105
0.600237
0.599435
0.598648
0.597879
0.59713
0.596405
0.595705
0.595033
0.594392
0.593781
0.593204
0.592662
0.592156
0.591686
0.591254
0.590861
0.590508
0.590195
0.589922
0.589689
0.589498
0.589348
0.589239
0.589172
0.589145
0.589159
0.589214
0.589309
0.589443
0.589618
0.589832
0.590084
0.590374
0.590702
0.591067
0.591468
0.591904
0.592375
0.592879
0.593417
0.593986
0.594586
0.595215
0.595874
0.59656
0.597272
0.59801
0.598772
0.599556
0.600363
0.60119
0.602036
0.602901
0.603782
0.604679
0.605591
0.606516
0.607453
0.608401
0.60936
0.610327
0.611301
0.612283
0.61327
0.614261
0.615257
0.616254
0.617254
0.618254
0.619254
0.620252
0.621249
0.622243
0.623233
0.624218
0.625197
0.626171
0.627137
0.628094
0.629043
0.629982
0.630911
0.631828
0.632733
0.633624
0.634502
0.635366
0.636214
0.637045
0.63786
0.638657
0.639435
0.640193
0.640931
0.641648
0.642343
0.643015
0.643663
0.644287
0.644884
0.645454
0.645997
0.646511
0.646995
0.647449
0.647872
0.648262
0.64862
0.648943
0.649231
0.649484
0.6497
0.649879
0.650019
0.65012
0.650181
0.650202
0.65018
0.650115
0.650006
0.649852
0.649652
0.649405
0.64911
0.648766
0.648372
0.647928
0.647432
0.646885
0.646284
0.64563
0.644922
0.644159
0.64334
0.642464
0.641533
0.640544
0.639498
0.638394
0.637231
0.636011
0.634732
0.633395
0.631998
0.630544
0.62903
0.627457
0.625824
0.624131
0.622376
0.62056
0.61868
0.616734
0.61472
0.612635
0.610483
0.608238
0.606013
0.603489
0.628215
0.62794
0.627643
0.627304
0.6269
0.626429
0.625898
0.625311
0.624674
0.62399
0.623266
0.622507
0.621716
0.6209
0.620063
0.61921
0.618345
0.617473
0.616598
0.615724
0.614855
0.613995
0.613147
0.612314
0.611499
0.610706
0.609935
0.609191
0.608475
0.607788
0.607132
0.60651
0.605922
0.605368
0.604851
0.604371
0.603929
0.603525
0.60316
0.602835
0.602549
0.602302
0.602096
0.60193
0.601803
0.601716
0.601669
0.601662
0.601693
0.601764
0.601873
0.60202
0.602205
0.602428
0.602688
0.602983
0.603315
0.603681
0.604082
0.604517
0.604984
0.605483
0.606013
0.606573
0.607162
0.60778
0.608424
0.609095
0.60979
0.610509
0.611251
0.612015
0.612799
0.613602
0.614424
0.615263
0.616117
0.616987
0.61787
0.618766
0.619673
0.620591
0.621518
0.622454
0.623397
0.624346
0.6253
0.626259
0.627221
0.628186
0.629152
0.630118
0.631085
0.63205
0.633013
0.633972
0.634928
0.635879
0.636825
0.637764
0.638695
0.639618
0.640532
0.641435
0.642328
0.64321
0.644078
0.644934
0.645775
0.646601
0.647411
0.648204
0.64898
0.649737
0.650474
0.651192
0.651888
0.652562
0.653212
0.653838
0.65444
0.655014
0.655562
0.656082
0.656572
0.657032
0.657462
0.657859
0.658224
0.658554
0.65885
0.65911
0.659334
0.65952
0.659668
0.659776
0.659845
0.659872
0.659857
0.659798
0.659696
0.659547
0.659353
0.659111
0.658821
0.658481
0.658091
0.65765
0.657158
0.656612
0.656014
0.655361
0.654653
0.65389
0.653071
0.652195
0.651262
0.650272
0.649223
0.648116
0.646951
0.645727
0.644444
0.643103
0.641702
0.640243
0.638724
0.637147
0.635509
0.633811
0.632053
0.630233
0.628349
0.6264
0.624383
0.622295
0.62014
0.61789
0.615658
0.613115
0.644566
0.644273
0.643949
0.643574
0.643131
0.642619
0.642043
0.641408
0.640721
0.639986
0.639209
0.638395
0.637549
0.636677
0.635784
0.634876
0.633955
0.633028
0.632099
0.631171
0.630249
0.629336
0.628436
0.627551
0.626686
0.625841
0.62502
0.624226
0.623458
0.622721
0.622014
0.62134
0.620699
0.620093
0.619522
0.618987
0.618488
0.618028
0.617604
0.617219
0.616872
0.616563
0.616293
0.616062
0.615869
0.615714
0.615598
0.61552
0.61548
0.615478
0.615513
0.615586
0.615695
0.61584
0.616022
0.616239
0.616492
0.616778
0.617099
0.617453
0.617839
0.618257
0.618706
0.619185
0.619694
0.620231
0.620795
0.621386
0.622003
0.622644
0.623308
0.623996
0.624704
0.625434
0.626182
0.626949
0.627733
0.628534
0.629349
0.630179
0.631022
0.631877
0.632743
0.633619
0.634504
0.635397
0.636298
0.637204
0.638115
0.639031
0.63995
0.640872
0.641795
0.642718
0.643642
0.644564
0.645483
0.6464
0.647313
0.64822
0.649122
0.650018
0.650906
0.651785
0.652655
0.653515
0.654364
0.655201
0.656025
0.656835
0.657631
0.658411
0.659175
0.659921
0.660649
0.661358
0.662047
0.662714
0.663359
0.663981
0.664578
0.66515
0.665696
0.666214
0.666704
0.667164
0.667594
0.667992
0.668358
0.668691
0.668989
0.669252
0.669478
0.669668
0.669819
0.669931
0.670003
0.670033
0.670022
0.669967
0.669867
0.669722
0.669531
0.669292
0.669005
0.668667
0.66828
0.667841
0.66735
0.666806
0.666209
0.665557
0.664849
0.664086
0.663266
0.66239
0.661456
0.660464
0.659414
0.658305
0.657137
0.65591
0.654625
0.65328
0.651876
0.650413
0.648891
0.64731
0.645669
0.643969
0.642208
0.640385
0.6385
0.63655
0.634533
0.632446
0.630291
0.628041
0.625807
0.623253
0.66271
0.662396
0.662039
0.661624
0.661135
0.660574
0.659945
0.659255
0.65851
0.657715
0.656876
0.655999
0.65509
0.654155
0.653198
0.652226
0.651242
0.650253
0.649262
0.648273
0.647291
0.646319
0.64536
0.644417
0.643494
0.642592
0.641714
0.640862
0.640037
0.639242
0.638477
0.637744
0.637044
0.636378
0.635745
0.635148
0.634587
0.634061
0.633572
0.63312
0.632704
0.632325
0.631984
0.631679
0.631411
0.63118
0.630986
0.630829
0.630709
0.630624
0.630576
0.630564
0.630587
0.630645
0.630739
0.630867
0.631029
0.631225
0.631453
0.631715
0.632008
0.632333
0.632689
0.633075
0.63349
0.633933
0.634404
0.634902
0.635426
0.635975
0.636548
0.637145
0.637764
0.638404
0.639065
0.639745
0.640444
0.64116
0.641893
0.642642
0.643405
0.644182
0.644972
0.645773
0.646585
0.647407
0.648238
0.649077
0.649923
0.650776
0.651633
0.652495
0.65336
0.654228
0.655097
0.655967
0.656837
0.657705
0.658571
0.659435
0.660294
0.661149
0.661998
0.66284
0.663675
0.664501
0.665318
0.666124
0.66692
0.667703
0.668473
0.669229
0.66997
0.670696
0.671404
0.672094
0.672766
0.673417
0.674048
0.674656
0.675241
0.675802
0.676337
0.676846
0.677327
0.67778
0.678204
0.678596
0.678957
0.679285
0.67958
0.679839
0.680063
0.68025
0.6804
0.68051
0.680581
0.680612
0.680599
0.680544
0.680445
0.6803
0.680109
0.67987
0.679583
0.679246
0.678859
0.67842
0.67793
0.677386
0.676788
0.676136
0.675429
0.674665
0.673845
0.672967
0.672032
0.671039
0.669987
0.668877
0.667708
0.666479
0.665191
0.663845
0.662439
0.660974
0.65945
0.657867
0.656224
0.654523
0.652761
0.650939
0.649054
0.647106
0.645092
0.643008
0.640857
0.638611
0.636381
0.633825
0.682765
0.682425
0.682028
0.681564
0.68102
0.680399
0.679706
0.678948
0.678132
0.677264
0.676351
0.675399
0.674415
0.673404
0.672372
0.671325
0.670269
0.669207
0.668145
0.667086
0.666035
0.664995
0.663969
0.662961
0.661972
0.661005
0.660062
0.659145
0.658256
0.657395
0.656565
0.655765
0.654998
0.654264
0.653563
0.652895
0.652262
0.651664
0.651101
0.650573
0.650079
0.649622
0.649199
0.648812
0.64846
0.648143
0.647862
0.647615
0.647404
0.647227
0.647085
0.646977
0.646903
0.646863
0.646857
0.646884
0.646943
0.647036
0.64716
0.647317
0.647504
0.647723
0.647971
0.648249
0.648556
0.648892
0.649255
0.649645
0.650061
0.650503
0.650969
0.65146
0.651973
0.652509
0.653066
0.653643
0.654241
0.654857
0.655491
0.656142
0.656809
0.657492
0.658189
0.658899
0.659622
0.660357
0.661102
0.661858
0.662622
0.663394
0.664174
0.66496
0.665752
0.666548
0.667348
0.668151
0.668955
0.66976
0.670566
0.67137
0.672172
0.672972
0.673768
0.674559
0.675345
0.676124
0.676896
0.677659
0.678413
0.679157
0.679889
0.680609
0.681316
0.682008
0.682686
0.683347
0.68399
0.684615
0.685221
0.685806
0.686369
0.686909
0.687425
0.687915
0.68838
0.688817
0.689226
0.689605
0.689954
0.69027
0.690554
0.690804
0.691019
0.691198
0.69134
0.691444
0.691509
0.691533
0.691516
0.691457
0.691353
0.691205
0.691011
0.690769
0.690479
0.69014
0.689751
0.689311
0.688818
0.688273
0.687674
0.687021
0.686312
0.685547
0.684726
0.683848
0.682912
0.681918
0.680865
0.679754
0.678583
0.677354
0.676065
0.674717
0.673311
0.671845
0.670321
0.668738
0.667095
0.665395
0.663634
0.661814
0.659933
0.657989
0.65598
0.653903
0.651761
0.649524
0.647303
0.644752
0.705565
0.705187
0.704737
0.704208
0.703591
0.702889
0.70211
0.701261
0.70035
0.699386
0.698375
0.697325
0.696243
0.695136
0.69401
0.69287
0.691723
0.690572
0.689423
0.688279
0.687144
0.686022
0.684916
0.683828
0.68276
0.681716
0.680695
0.679701
0.678734
0.677796
0.676887
0.676009
0.675162
0.674347
0.673564
0.672813
0.672096
0.671411
0.67076
0.670141
0.669557
0.669005
0.668487
0.668003
0.667552
0.667134
0.666749
0.666398
0.666079
0.665793
0.66554
0.665319
0.665131
0.664975
0.664851
0.664758
0.664697
0.664667
0.664669
0.6647
0.664762
0.664854
0.664976
0.665126
0.665305
0.665511
0.665746
0.666007
0.666294
0.666607
0.666945
0.667307
0.667693
0.668103