/*--------------------------------*- C++ -*----------------------------------*\
  =========                 |
  \\      /  F ield         | OpenFOAM: The Open Source CFD Toolbox
   \\    /   O peration     | Website:  https://openfoam.org
    \\  /    A nd           | Version:  7
     \\/     M anipulation  |
\*---------------------------------------------------------------------------*/
FoamFile
{
    version     2.0;
    format      ascii;
    class       surfaceScalarField;
    location    "1.3";
    object      alphaPhi0.water;
}
// * * * * * * * * * * * * * * * * * * * * * * * * * * * * * * * * * * * * * //

dimensions      [0 3 -1 0 0 0 0];

internalField   nonuniform List<scalar> 
11840
(
0
0
0
0
0
0
0
0
0
0
0
0
0
0
0
0
0
0
0
0
0
0
0
0
0
0
0
0
0
0
0
0
0
0
0
0
0
0
0
0
0
0
0
0
0
0
0
0
0
0
0
0
0
0
0
0
0
0
0
0
0
0
0
0
0
0
0
0
0
0
0
0
0
0
0
0
0
0
0
0
0
0
0
0
0
0
0
0
0
0
0
0
0
0
0
0
0
0
0
0
0
0
0
0
0
0
0
0
0
0
0
0
0
0
0
0
0
0
0
0
0
0
0
0
0
0
0
0
0
0
0
0
0
0
0
0
0
0
0
0
0
0
0
0
0
0
0
0
0
0
0
0
0
0
0
0
0
0
0
0
0
0
0
0
0
0
0
0
0
0
0
0
0
0
0
0
0
0
0
0
0
0
0
0
0
0
0
0
0
0
0
0
0
0
0
0
0
0
0
0
0
0
0
0
0
0
0
0
0
0
0
0
0
0
0
0
0
0
0
0
0
0
0
0
0
0
0
0
0
0
0
0
0
0
0
0
0
0
0
0
0
0
0
0
0
0
0
0
0
0
0
0
0
0
0
0
0
0
0
0
0
0
0
0
0
0
0
0
0
0
0
0
0
0
0
0
0
0
0
0
0
0
0
0
0
0
0
0
0
0
0
0
0
0
0
0
0
0
0
0
0
0
0
0
0
0
0
0
0
0
0
0
0
0
0
0
0
0
0
0
0
0
0
0
0
0
0
0
0
0
0
0
0
0
0
0
0
0
0
0
0
0
0
0
0
0
0
0
0
0
0
0
0
0
0
0
0
0
0
0
0
0
0
0
0
0
0
0
0
0
0
0
0
0
0
0
0
0
0
0
0
0
0
0
0
0
0
0
0
0
0
0
0
0
0
0
0
0
0
0
0
0
0
0
0
0
0
0
0
0
0
0
0
0
0
0
0
0
0
0
0
0
0
0
0
0
0
0
0
0
0
0
0
0
0
0
0
0
0
0
0
0
0
0
0
0
0
0
0
0
0
0
0
0
0
0
0
0
0
0
0
0
0
0
0
0
0
0
0
0
0
0
0
0
0
0
0
0
0
0
0
0
0
0
0
0
0
0
0
0
0
0
0
0
0
0
0
0
0
0
0
0
0
0
0
0
0
0
0
0
0
0
0
0
0
0
0
0
0
0
0
0
0
0
0
0
0
0
0
0
0
0
0
0
0
0
0
0
0
0
0
0
0
0
0
0
0
0
0
0
0
0
0
0
0
0
0
0
0
0
0
0
0
0
0
0
0
0
0
0
0
0
0
0
0
0
0
0
0
0
0
0
0
0
0
0
0
0
0
0
0
0
0
0
0
0
0
0
0
0
0
0
0
0
0
0
0
0
0
0
0
0
0
0
0
0
0
0
0
0
0
0
0
0
0
0
0
0
0
0
0
-5.4920885159248e-74
-2.7460442579624e-74
3.2861271110846e-65
1.4787572047299e-64
2.4412140016582e-57
3.5058522059746e-57
6.0712358886772e-56
3.9457700557265e-56
3.9570122094237e-55
2.5940634396614e-55
4.3172928342529e-54
2.4960309563254e-54
1.907199776448e-53
1.3279084254348e-53
8.1341938729872e-53
5.7107798559368e-53
3.445905332219e-52
2.4408085985195e-52
1.3218337541397e-51
9.3647893070802e-52
6.0237192000169e-51
4.0265432643632e-51
1.4380871837535e-49
8.9586555498914e-50
2.7587472946313e-47
9.1761214145283e-48
1.0789496957804e-46
7.1812718685379e-47
2.6494486621894e-46
1.8818729558437e-46
2.530030686571e-45
1.1423524889216e-45
4.7350489761894e-45
3.5040689270184e-45
7.5171015300376e-45
6.0428075891937e-45
7.7996288639431e-45
7.7935579498025e-45
7.118916928537e-45
7.7449437302119e-45
6.2640753349669e-45
6.8534935602389e-45
5.7485996388182e-45
5.7662720024274e-45
5.5703074125835e-45
4.9989028713e-45
5.9440849497029e-45
3.9173931560809e-45
4.743154027483e-45
2.7184995356468e-45
2.3757288830722e-45
1.6680935265752e-45
6.9960594759124e-46
6.9630857583509e-46
1.4928994277645e-46
1.8698140367011e-46
2.8922502592207e-47
4.0915146381997e-47
5.707014220658e-48
8.4796126432002e-48
1.0807196584038e-48
2.9089331844619e-48
2.0352412617746e-49
5.9777289081071e-49
3.7179069254724e-50
1.1041593840495e-49
6.997030470921e-51
2.0260729538573e-50
1.6780265809881e-51
4.0634911007476e-51
2.6323967670996e-52
1.3205049118085e-51
6.5706909350135e-53
1.5746880602877e-52
1.2152259206906e-53
4.8903769406553e-53
1.784103935015e-54
9.5296907196538e-54
4.4767149179329e-55
1.0893297304836e-54
6.5262326440399e-56
3.5153320500803e-55
1.6620742310876e-56
3.9950857107886e-56
2.5902795457405e-57
1.291515860334e-56
4.5167944789993e-58
1.9368960280738e-57
1.1366651237712e-58
2.7727354745657e-58
1.6541047801399e-59
8.9553624731918e-59
4.3388763167768e-60
1.0129864510076e-59
7.8378631107648e-61
3.2808725384533e-60
1.1481143766874e-61
6.1929637041636e-61
2.8897220583153e-62
7.0652667789568e-62
4.216873094157e-63
2.2799742050042e-62
1.1055882616813e-63
2.5876228320961e-63
1.9992805742901e-64
8.3724526604612e-64
2.9735438434647e-65
1.5789039720536e-64
6.2457765978232e-66
1.8643608019965e-65
1.1043329462948e-66
4.6648337466552e-66
2.8927878998291e-67
6.806540223361e-67
5.2343402937565e-68
2.1948881482319e-67
7.7012509149805e-69
4.1492505426441e-68
2.019984134699e-69
4.738122435079e-69
3.7069018542723e-70
1.5286018560126e-69
7.0760525370204e-71
2.858153035327e-70
1.2912660308603e-71
5.3910649355119e-71
1.9338851346428e-72
1.0214406600739e-71
3.6441827518257e-73
1.4270837033664e-72
7.9047015097209e-74
2.2809905296609e-73
1.6399453170391e-74
4.8001941170181e-74
3.2440013973764e-75
1.1139713545667e-74
8.0435988377179e-76
1.9734366603707e-75
1.4604693489588e-76
6.116417282431e-76
2.195726054424e-77
1.1607678939684e-76
4.8006057065555e-78
1.3846424904237e-77
1.1384451154709e-78
2.8949722479761e-78
1.7056351732366e-79
8.9977206111877e-79
3.2312233523294e-80
1.2673907214187e-79
7.128676585772e-81
2.0392660019697e-80
1.5257680809309e-81
4.3433890513415e-81
3.1998605984343e-82
9.2170977835086e-82
7.3692927331189e-83
1.9139930136216e-82
1.113557283368e-83
5.8255816813464e-83
2.4174066405726e-84
7.0603879789498e-84
5.9309683281275e-85
1.4488797420804e-84
4.3853725235008e-85
0
0
0
0
0
0
0
0
0
0
0
0
0
0
0
0
0
0
2.1344050756577e-41
2.1179561301437e-41
1.8667586555089e-41
2.2155313448115e-41
1.0464450175537e-41
8.203136379552e-42
8.3478586979708e-40
6.9060293110815e-40
1.5109762474813e-40
6.8368823877235e-40
2.758620514133e-41
1.235114196068e-40
5.0174921656841e-42
2.2568712975645e-41
9.1240334933782e-43
4.1050888163463e-42
1.3102293328818e-40
0
2.3822374326003e-41
1.0720055896217e-40
4.3313421142025e-42
1.9491032211801e-41
7.8751674794882e-43
3.5438253662537e-42
1.4318486342972e-43
6.4433188451981e-43
1.2419124486519e-42
0
2.2580226342352e-43
1.0161101852728e-42
4.1054957033697e-44
1.8474730653968e-43
7.4645378456783e-45
3.3590419825172e-44
1.3571894896275e-45
6.1073508104426e-45
2.4676514533288e-46
1.1104352411447e-45
4.4938025052625e-47
2.0207845611519e-46
1.8430739259106e-47
4.8865429866516e-47
3.4332641367055e-44
0
6.4531404358165e-45
2.8445882252262e-44
2.4440845746472e-45
7.2088191916501e-45
1.0305991318651e-43
0
2.5901362375669e-44
9.2268369031733e-44
8.0444004505078e-43
0
8.2355094970362e-43
0
4.7683210078024e-44
7.8910904473218e-43
8.0642833357599e-44
0
1.2509349882373e-44
7.6856126584962e-44
7.2486344047511e-45
9.8094574937466e-45
5.1379010792719e-45
0
1.7064192355644e-45
6.0665883503564e-45
2.2608876743328e-46
1.992207258103e-45
2.0700376863876e-46
0
4.8716801787584e-47
1.2812275233566e-46
2.1435965362665e-47
3.6111830725913e-47
6.059546078641e-48
1.4467042788353e-47
8.5503623580912e-49
0
7.3655394013914e-49
0
1.5640020079094e-49
5.5357230419135e-49
7.3391914022104e-50
1.5225627928808e-49
1.3877349841e-50
5.9808236380565e-50
2.2581249850384e-51
0
2.2710941895537e-51
0
3.1776298752685e-52
1.9561311076588e-51
1.9449790806005e-52
0
2.691086190095e-53
1.6769421860015e-52
1.731000221327e-53
0
4.1588330154054e-55
1.689819049823e-53
4.1616390847374e-55
0
2.5967666833855e-55
0
3.6308461518298e-56
2.233974417136e-55
2.2558985831551e-56
0
4.1029063813945e-57
1.8457178326953e-56
5.7139046014072e-58
3.5317263617354e-57
3.5265941819278e-58
0
4.8247366494279e-59
3.0441991773095e-58
3.0582880355727e-59
0
9.5257724984355e-61
2.9630598711732e-59
9.5239019748212e-61
0
1.2962138053363e-61
0
1.2956983198866e-61
0
8.1313975579494e-62
0
1.3914765462149e-62
6.7399292583842e-62
2.5299737577916e-63
1.1384807506575e-62
4.3801983411444e-64
0
4.3788248481655e-64
0
1.4484284969635e-65
4.2339831318953e-64
1.4479745895105e-65
0
5.8455284838667e-67
1.3895197062528e-65
5.3964945179345e-67
0
1.5754386548752e-67
0
6.477118165222e-68
0
6.1534301259582e-68
0
9.6772783413543e-69
0
9.6741581393661e-69
0
1.838219550184e-70
9.4903362360304e-69
1.311812499417e-70
0
9.6994636231884e-71
0
3.9325025729298e-72
9.306213406499e-71
3.6230890409717e-72
0
8.9597299730347e-73
0
3.4855596235092e-73
0
2.7830546169266e-73
0
4.2825987035514e-74
0
4.2811087560253e-74
0
4.9821097359906e-75
0
3.7254372814948e-75
0
0
0
0
0
0
0
0
0
0
0
0
0
0
0
0
3.4698946758774e-31
1.738793207663e-31
1.929428813978e-29
9.8096632711244e-30
5.1671919440979e-28
2.6732557079245e-28
8.8092320097502e-27
4.649326093223e-27
1.0705729313429e-25
5.7875845507468e-26
9.5273301903466e-25
5.2974452836742e-25
6.6229458254588e-24
3.7473328549444e-24
4.4900152504123e-23
2.5267384136199e-23
3.422276646082e-22
1.9032402972153e-22
2.5324363593549e-21
1.4172330135954e-21
1.5887857497742e-20
9.1290137007558e-21
8.1727229753947e-20
4.8615584428809e-20
3.3831043399687e-19
2.1006303869695e-19
1.1230365731605e-18
7.3273917050562e-19
3.0230129774138e-18
2.0781839735586e-18
6.7500071075957e-18
4.8804590327616e-18
1.2943697268359e-17
9.7744360757599e-18
2.2198847847161e-17
1.7340727497358e-17
3.5144776043527e-17
2.8226863704105e-17
5.1566445162801e-17
4.2827725583819e-17
6.7072116780653e-17
5.92355564847e-17
7.311011322817e-17
7.0192103047674e-17
7.3396872742067e-17
7.2075970381555e-17
7.056307037795e-17
7.052308006747e-17
6.2150755395043e-17
6.4866020215634e-17
4.7246160293284e-17
5.3210350849126e-17
2.9341948275149e-17
3.6985009342637e-17
1.4026585370078e-17
2.0636361130119e-17
5.0123597134612e-18
8.8655026487215e-18
1.4185016303136e-18
2.956169928458e-18
3.6868122815722e-19
8.359185923459e-19
9.9895207207159e-20
2.2702946960228e-19
2.9297867361037e-20
6.4135698762765e-20
9.1804044330457e-21
1.9257499416147e-20
3.0016383657112e-21
6.0954232311249e-21
1.0028026537552e-21
1.9983513715281e-21
3.3660509203754e-22
6.6649761332921e-22
1.1199853088817e-22
2.2266482699895e-22
3.6536529804394e-23
7.3564352608479e-23
1.1588080786753e-23
2.3787555043569e-23
3.5567043452517e-24
7.4736556807208e-24
1.0567398238275e-24
2.2745971751053e-24
3.0533916644621e-25
6.7167302391694e-25
8.6349436263968e-26
1.9336329755957e-25
2.4028643459359e-26
5.4568634566084e-26
6.6002310539911e-27
1.5160849910123e-26
1.7920125654643e-27
4.1573029946212e-27
4.8121146675761e-28
1.126587903025e-27
1.2787468475696e-28
3.0194069100304e-28
3.3650560726506e-29
8.0092302236718e-29
8.775843162584e-30
2.1042529522771e-29
2.2697378105854e-30
5.4797448294716e-30
5.8251534921787e-31
1.4153407217217e-30
1.4842220674189e-31
3.6277980948663e-31
3.7561135571493e-32
9.232453403021e-32
9.4448938262504e-33
2.3338322800133e-32
2.3606365166339e-33
5.8623121808459e-33
5.8664599195597e-34
1.4637528193112e-33
1.4499954093308e-34
3.6341669797257e-34
3.5654802197228e-35
8.9744281696257e-35
8.7244461689229e-36
2.2049005982309e-35
2.1248343521488e-36
5.3908538286517e-36
5.1519421736966e-37
1.3119278996051e-36
1.2438272381957e-37
3.1786032049419e-37
2.9906852091925e-38
7.6686686628321e-38
7.1626836140922e-39
1.8426306975692e-38
1.7090043223882e-39
4.4102505206101e-39
4.0629014510443e-40
1.0516274781039e-39
9.6253044362584e-41
2.4986012727619e-40
2.2726540364121e-41
5.9159841072839e-41
5.3486609161312e-42
1.3960694962751e-41
1.2548701784933e-42
3.2838909187024e-42
2.9352208841184e-43
7.700530460576e-43
6.8456498512991e-44
1.8003153483935e-43
1.5920683538615e-44
4.1967756166093e-44
3.6925031918667e-45
9.7558017798786e-45
8.5414015027822e-46
2.2616680761582e-45
1.9707045598701e-46
5.229378178125e-46
4.5355640073893e-47
1.2060386651755e-46
1.0413341105622e-47
2.7745680433476e-47
2.3852175324515e-48
6.3677182500839e-48
5.4509682684592e-49
1.4579963549765e-48
1.2429521247983e-49
3.3307466091056e-49
2.8281100825739e-50
7.5921784183084e-50
6.4213195576657e-51
1.7268584374855e-50
1.4549972576789e-51
3.9195597071271e-51
3.2902755035612e-52
8.8783408445479e-52
7.4261204394614e-53
2.0070645588523e-52
1.6726675095937e-53
4.5286145459456e-53
3.7660617311801e-54
1.0194493220424e-53
8.3274334330245e-55
2.3013405049374e-54
2.1613708943931e-55
4.9187291264151e-55
1.6447653823784e-55
0
0
0
0
0
0
0
0
0
0
0
0
3.2048324742024e-31
1.5959897902311e-31
2.587456259451e-29
1.2879935882255e-29
9.4627191904893e-28
4.7406206883181e-28
2.1619941916148e-26
1.0948467474151e-26
3.4873172343381e-25
1.7918843576056e-25
4.242017405283e-24
2.2213761629956e-24
3.9555018539338e-23
2.1238763738928e-23
2.8649771736718e-22
1.583238875011e-22
1.6933300028045e-21
9.5701829836685e-22
9.063531706701e-21
5.0869781162604e-21
5.6384022998796e-20
3.0594010538189e-20
4.1038193917703e-19
2.1944367890109e-19
2.4069106293579e-18
1.3457409230101e-18
1.1642250059323e-17
6.8728648402395e-18
4.5299474576384e-17
2.8345658879745e-17
1.2714046324392e-16
8.6572806939052e-17
2.5906692332795e-16
1.9249748437874e-16
4.2213144573261e-16
3.317252864918e-16
6.2143385743574e-16
4.9741736483707e-16
9.021322386081e-16
7.1853016848863e-16
1.3074895364208e-15
1.0418630583337e-15
1.7670451857989e-15
1.4663210309283e-15
2.010134135352e-15
1.8219299032114e-15
2.0297117937438e-15
1.9181117806963e-15
1.9725151373739e-15
1.8896618852149e-15
1.7607475494703e-15
1.7584020039626e-15
1.3589587719949e-15
1.4629597351612e-15
8.5879369835261e-16
1.0326070095827e-15
4.2043430102268e-16
5.8706247434564e-16
1.5635402207388e-16
2.5966540377072e-16
4.7149799535091e-17
9.0899749617107e-17
1.3280250809186e-17
2.7554063061313e-17
3.9140335540216e-18
8.1161445389078e-18
1.246391133298e-18
2.4946683988267e-18
4.2261262299894e-19
8.1435782734986e-19
1.4874368839679e-19
2.791716248986e-19
5.3136599159109e-20
9.8510661523932e-20
1.8952493965963e-20
3.5118254862144e-20
6.6722229610418e-21
1.2468811564055e-20
2.2975686250882e-21
4.3618856461895e-21
7.6756052333796e-22
1.4897137098359e-21
2.4722422811269e-22
4.9287106305443e-22
7.6621482950379e-23
1.5721348723168e-22
2.2926658789151e-23
4.8340996081531e-23
6.6691539535936e-24
1.4390688973416e-23
1.8997525990228e-24
4.1746518848689e-24
5.3269069763477e-25
1.1873323489655e-24
1.4742640142352e-25
3.3246678796052e-25
4.0316481212284e-26
9.1862973189204e-26
1.0900828243562e-26
2.5076238364755e-26
2.9160103976411e-27
6.7680676405338e-27
7.7234142894093e-28
1.8075329713335e-27
2.0270383427459e-28
4.7804971460685e-28
5.2753312945481e-29
1.253000331727e-28
1.3621579918615e-29
3.2569185828022e-29
3.4915031690973e-30
8.400129822836e-30
8.887843810149e-31
2.1508108665062e-30
2.2477743079121e-31
5.4694743144988e-31
5.6498757004891e-32
1.3819342897884e-31
1.4118815021531e-32
3.4704267745474e-32
3.5088202320225e-33
8.6650895965493e-33
8.6745407867704e-34
2.1517226717151e-33
2.1338478185604e-34
5.3154486373602e-34
5.2241100777298e-35
1.3065967496259e-34
1.2731680600015e-35
3.1966147751691e-35
3.0893661935578e-36
7.7853397337086e-36
7.4652229978419e-37
1.8879393235382e-36
1.7967177058329e-37
4.559321933121e-37
4.3077399043979e-38
1.0966987060869e-37
1.0290014972278e-38
2.6279517276143e-38
2.4492868956403e-39
6.2741380245342e-39
5.8100099739039e-40
1.4926465035649e-39
1.3736645042657e-40
3.5390113543715e-40
3.2374339873757e-41
8.3633740391602e-41
7.6064952521448e-42
1.9701761106085e-41
1.781870091955e-42
4.626995569638e-42
4.1621442711651e-43
1.0834467001903e-42
9.6949931357309e-44
2.5297171542305e-43
2.2521883757195e-44
5.8902213369732e-44
5.2182437643636e-45
1.3678035430673e-44
1.2059804695339e-45
3.1679886116541e-45
2.7802547875604e-46
7.3188832560248e-46
6.3942251757059e-47
1.6867054268022e-46
1.467166516158e-47
3.8779056326169e-47
3.3588207866819e-48
8.8950363347907e-48
7.6724969451111e-49
2.0357211944881e-48
1.7488576729743e-49
4.6487401595436e-49
3.977990967154e-50
1.0593121304218e-49
9.0301186839197e-51
2.4088336331172e-50
2.0455184118194e-51
5.4666914463991e-51
4.6313269675742e-52
1.2376599984621e-51
1.0296932415268e-52
2.8096532913097e-52
2.6884524066555e-53
6.0378838280161e-53
2.0329504316439e-53
0
0
0
0
0
0
0
0
0
0
1.4005948400641e-31
6.9128332513007e-32
1.5732797037865e-29
7.7135308097894e-30
7.3650653971759e-28
3.6100495880544e-28
2.0632557757806e-26
1.0152090025905e-26
4.0329204087612e-25
1.9976679279549e-25
5.9611999726119e-24
2.9810134625998e-24
6.9625932394672e-23
3.5275110838511e-23
6.5484362111759e-22
3.3787830971955e-22
4.9906402598551e-21
2.6405589539126e-21
3.0631103935381e-20
1.6744870189885e-20
1.5194973528147e-19
8.5138112929946e-20
7.0711915431588e-19
3.93026361181e-19
3.6343987013191e-18
1.8884252761928e-18
3.1780802202799e-17
1.5377226520134e-17
3.0042763221618e-16
1.4632763643129e-16
1.3677041794551e-15
7.9033100635947e-16
4.7734117238904e-15
3.1682104425174e-15
8.482024199264e-15
7.4918349868554e-15
8.9170990389371e-15
9.0269912124481e-15
9.1355002635893e-15
9.2497521666423e-15
1.029781499311e-14
9.7731057118489e-15
1.3697796984903e-14
1.174897571175e-14
1.9316362436796e-14
1.5762366234323e-14
2.4153032921864e-14
2.0554054497352e-14
2.5233376277171e-14
2.3062054637388e-14
2.5117510585936e-14
2.3078476895592e-14
2.2875387035018e-14
2.181463233368e-14
1.7896188718389e-14
1.8369322500833e-14
1.1251410435899e-14
1.2938026913609e-14
5.4745283807494e-15
7.2912110510708e-15
2.0768560398832e-15
3.2385250465571e-15
6.6940939346038e-16
1.1801812330473e-15
2.0871491802935e-16
3.8804573459467e-16
6.8569442744768e-17
1.2684220811893e-16
2.4139173895676e-17
4.3390921673779e-17
8.9398222275601e-18
1.5643845359061e-17
3.3956579011896e-18
5.8537461078604e-18
1.2961158269289e-18
2.2280957805129e-18
4.9089746708885e-19
8.4901760571018e-19
1.831359393623e-19
3.2059663279888e-19
6.6859497376956e-20
1.1910022998793e-19
2.368915301579e-20
4.3196994762049e-20
8.0737401085919e-21
1.5162073003505e-20
2.6318986375906e-21
5.1109447309261e-21
8.2109744505012e-22
1.6491842909923e-21
2.4680805798336e-22
5.107746128484e-22
7.2148266012333e-23
1.5292685823722e-22
2.0676772618358e-23
4.462857423711e-23
5.8374134349215e-24
1.2777503334966e-23
1.6268275748003e-24
3.6030481564204e-24
4.4790223055005e-25
1.0025696922466e-24
1.2189623287678e-25
2.7555794100945e-25
3.2815666808362e-26
7.4870564884869e-26
8.7462734629196e-27
2.0126544767707e-26
2.3097521833274e-27
5.3573343997563e-27
6.0479420465498e-28
1.4131217087438e-27
1.5710881483759e-28
3.6961234407794e-28
4.0509825146983e-29
9.5916615230508e-29
1.0372412225545e-29
2.4707888510254e-29
2.63835535174e-30
6.3206671295562e-30
6.6692879286294e-31
1.6063796007871e-30
1.6759548445323e-31
4.057398733444e-31
4.1880601476004e-32
1.0188338738684e-31
1.0410007361477e-32
2.544160793523e-32
2.5744625970066e-33
6.3195987013493e-33
6.3360812810965e-34
1.5618768450297e-33
1.5521973173905e-34
3.841637766277e-34
3.7857476324102e-35
9.4056919678125e-35
9.1942271207174e-36
2.292742923808e-35
2.2238850694311e-36
5.5653141410417e-36
5.3581226812745e-37
1.3454502806605e-36
1.2861193101876e-37
3.2400986662002e-37
3.0759487377139e-38
7.7736661790355e-38
7.3310015430059e-39
1.8583648036607e-38
1.7413561740633e-39
4.4272099739467e-39
4.12289738219e-40
1.0511787033868e-39
9.7309600005255e-41
2.4878280986272e-40
2.2897710195209e-41
5.869603889027e-41
5.3722241199596e-42
1.380658968677e-41
1.2568461300797e-42
3.2381383326842e-42
2.9323387520922e-43
7.573133955497e-43
6.8231727847352e-44
1.7663020244129e-43
1.5835550004486e-44
4.1086512254448e-44
3.6659552061956e-45
9.5326285430489e-45
8.4660235145504e-46
2.2061629238386e-45
1.9504720479647e-46
5.0933660585571e-46
4.4832833924585e-47
1.1731242824005e-46
1.0281959189023e-47
2.6957713003619e-47
2.3529032552027e-48
6.1808598155888e-48
5.3729272530106e-49
1.4140528074858e-48
1.2242162478131e-49
3.2283105942554e-49
2.787775403592e-50
7.3519785712896e-50
6.2331295559298e-51
1.6786780394836e-50
1.637428030568e-51
3.6275663154579e-51
1.2301926727701e-51
0
0
0
0
0
0
0
0
0
0
4.0591974542945e-30
1.9377203172671e-30
3.1598630097014e-28
1.5091665151757e-28
1.1730316773277e-26
5.6191118730564e-27
2.7894749074356e-25
1.3427273220061e-25
4.8118848374183e-24
2.3304635482655e-24
6.4593102657706e-23
3.1506990076439e-23
7.0500827771039e-22
3.4689410293505e-22
6.4061291713729e-21
3.1892645289159e-21
4.8957274329709e-20
2.47943592727e-20
3.1262914542463e-19
1.6248462179166e-19
1.6303423608065e-18
8.7765119213125e-19
7.0276853837409e-18
3.9046934716659e-18
2.7235159217991e-17
1.4767506746875e-17
1.466377813779e-16
7.1191812024477e-17
1.0616752987022e-15
4.4060227033655e-16
1.6099212310896e-14
5.6634975393784e-15
3.224837001117e-13
9.653238191495e-14
6.5358526766018e-13
5.2403565808049e-13
6.5615168157093e-13
7.0091713684342e-13
4.2582191552229e-13
6.6662525521782e-13
2.7171269108439e-13
4.623820220722e-13
2.0529651915463e-13
3.0842073965744e-13
1.9570101531002e-13
2.448402730397e-13
2.0453751214894e-13
2.307139259086e-13
2.1136215548709e-13
2.2364041364163e-13
2.0924485422789e-13
2.1216964924576e-13
1.8492129297435e-13
1.8911984269059e-13
1.3661843907779e-13
1.4680497151419e-13
8.1653527697341e-14
9.4873381250782e-14
3.8546468478085e-14
4.981773922139e-14
1.4897124432863e-14
2.1551436265211e-14
5.2343519590072e-15
8.1994517878395e-15
1.8581023758966e-15
2.9960589941697e-15
6.9780846471437e-16
1.1193169346473e-15
2.7637252014874e-16
4.3680629428041e-16
1.1294619772633e-16
1.7683677432884e-16
4.6578354762577e-17
7.2955041164874e-17
1.9091010050897e-17
3.0160125829978e-17
7.7200480888934e-18
1.2361260923356e-17
3.0699083770718e-18
4.9961079341444e-18
1.1952750984859e-18
1.983638023468e-18
4.5199176625948e-19
7.6898352988871e-19
1.6422953068094e-19
2.8839998775572e-19
5.6808909111129e-20
1.0359636161576e-19
1.8648079027538e-20
3.5402694361319e-20
5.8365851812063e-21
1.1507171435791e-20
1.7598685004109e-21
3.5802615604432e-21
5.1688216507174e-22
1.0768635531493e-21
1.4904566953786e-22
3.1603751807836e-22
4.2363154423523e-23
9.1074457542998e-23
1.1885727747851e-23
2.5857323214446e-23
3.2936943400879e-24
7.2438231685826e-24
9.0204602675796e-25
2.0041794124616e-24
2.4435381838705e-25
5.4808568284182e-25
6.5529604657352e-26
1.482799384411e-25
1.7411296487793e-26
3.9719744479595e-26
4.5866155309603e-27
1.0542612284113e-26
1.1985829093502e-27
2.7745265736402e-27
3.1086638347319e-28
7.2438749609764e-28
8.0057598247607e-29
1.8771896323608e-28
2.0479980520054e-29
4.8304995306782e-29
5.2061134573103e-30
1.2347972859979e-29
1.31552536622e-30
3.1367206060035e-30
3.305353556302e-31
7.9209102584587e-31
8.2601911253707e-32
1.9889480467341e-31
2.053649476797e-32
4.9675231826959e-32
5.0807575479576e-33
1.2343372926309e-32
1.2510961983134e-33
3.0521515501265e-33
3.066904516855e-34
7.5119004725499e-34
7.4857988139453e-35
1.8405660986992e-34
1.8196163398502e-35
4.4904630572962e-35
4.4055047081842e-36
1.0910475833646e-35
1.0625551451534e-36
2.6404555603481e-36
2.5533414328349e-37
6.3659301813209e-37
6.1140044718186e-38
1.5291631901292e-37
1.4590038107793e-38
3.6602615613813e-38
3.4701808061827e-39
8.7315363237884e-39
8.2273704008765e-40
2.0760617112787e-39
1.9445935601795e-40
4.9204951191118e-40
4.5824589125863e-41
1.162630059639e-40
1.0767405361771e-41
2.738932148208e-41
2.5229286885164e-42
6.4338140335224e-42
5.8954509099504e-43
1.5070985642499e-42
1.3739853514518e-43
3.5207663093389e-43
3.1939887379942e-44
8.203322616441e-44
7.4063196936534e-45
1.9064806513356e-44
1.7132448393457e-45
4.4197370306215e-45
3.9537853124722e-46
1.0221433184568e-45
9.1035410166744e-47
2.3583441807573e-46
2.0914281793616e-47
5.428856204729e-47
4.7937366153502e-48
1.2469779898851e-47
1.0980373670812e-48
2.8568459123454e-48
2.4691784147273e-49
6.5615888656601e-49
6.5271797628428e-50
1.4259506973903e-49
4.8715061706966e-50
0
0
0
0
0
0
0
0
8.6095777648117e-44
2.4422818868788e-44
5.5572160395105e-29
2.5553365012786e-29
3.7190787070641e-27
1.7192813901326e-27
1.2218391838699e-25
5.6840229841118e-26
2.6225023955015e-24
1.2287025511461e-24
4.1352716040468e-23
1.9523480764748e-23
5.1155058096852e-22
2.4337296128809e-22
5.1904385685617e-21
2.4880219098855e-21
4.4455885756838e-20
2.1477505554179e-20
3.2794050460339e-19
1.6006002268565e-19
2.0837150579763e-18
1.033554122496e-18
1.127897102577e-17
5.7445068607466e-18
5.0618318086553e-17
2.6817276601743e-17
1.8629308976923e-16
1.0198585944138e-16
6.5226387067622e-16
3.4581931246582e-16
2.6475825488479e-15
1.1928994845632e-15
2.3810993431258e-14
7.8183328736907e-15
3.1486969530104e-13
6.8823997260794e-14
4.1848477962796e-12
1.0165917664342e-12
2.5206796116706e-11
1.0610555031635e-11
2.4652553988629e-11
2.9567702567408e-11
1.6677111368433e-11
2.856765715435e-11
9.092728847094e-12
1.8364164242088e-11
4.70740037857e-12
9.7529035605825e-12
3.0754205273471e-12
5.6134599519087e-12
2.4134153282197e-12
3.9647266795508e-12
1.945374812633e-12
3.0456095750608e-12
1.4366243613286e-12
2.2219937563466e-12
8.7787102008454e-13
1.3865830309855e-12
4.1953783246481e-13
6.7937909464291e-13
1.6569048163543e-13
2.6141887797712e-13
6.1990810703317e-14
9.1350478441368e-14
2.4199396430281e-14
3.3855482622242e-14
1.011732152393e-14
1.3787655443522e-14
4.4645290138625e-15
6.0295412850402e-15
2.027864064283e-15
2.7477490426891e-15
9.2651521736839e-16
1.2713735023338e-15
4.1909606751029e-16
5.8615631763643e-16
1.8629589592715e-16
2.6637226392122e-16
8.1256312302486e-17
1.1881476777151e-16
3.4774537645868e-17
5.1980236364901e-17
1.4565720402715e-17
2.2282850673849e-17
5.9285304973863e-18
9.3201349599144e-18
2.3182477190966e-18
3.7707445513064e-18
8.6040509424526e-19
1.4588718466158e-18
3.0076904151684e-19
5.3430110484349e-19
9.9107600825025e-20
1.8444245406231e-19
3.107446976779e-20
6.0241421996547e-20
9.3968804576575e-21
1.8807656312152e-20
2.7733144532898e-21
5.6810473107316e-21
8.0460544189562e-22
1.6764944451689e-21
2.3017931458508e-22
4.8617519636218e-22
6.4992884731048e-23
1.3893276294542e-22
1.8121664286404e-23
3.917245353082e-23
4.9930373636219e-24
1.0906497826529e-23
1.3606678089013e-24
3.0011800495938e-24
3.6707059266354e-25
8.1694499865324e-25
9.8106771531032e-26
2.2016969731574e-25
2.5994801911361e-26
5.8790915108612e-26
6.8321263816803e-27
1.5564255885924e-26
1.7820579436782e-27
4.0874527491901e-27
4.6150628266845e-28
1.0653607889045e-27
1.1871307792121e-28
2.7570963716908e-28
3.0341970202604e-29
7.0874789023924e-29
7.7082878528248e-30
1.8103952038298e-29
1.9470315285982e-30
4.5966323768153e-30
4.8911371450464e-31
1.1604367654211e-30
1.2223050974084e-31
2.9136552807282e-31
3.039378726234e-32
7.2777960148277e-32
7.5217728036506e-33
1.8088732033484e-32
1.8529925802656e-33
4.4746267728294e-33
4.5449269540773e-34
1.1018768356353e-33
1.1100843632934e-34
2.7015798782026e-34
2.700423938334e-35
6.5960897276255e-35
6.543667877456e-36
1.6040198641465e-35
1.5797419771036e-36
3.8855571873961e-36
3.8000135420789e-37
9.3773266954473e-37
9.1090521391878e-38
2.2549919830238e-37
2.1762163848819e-38
5.403880804057e-38
5.1822774176264e-39
1.2906626732505e-38
1.2301981782449e-39
3.072659881837e-39
2.9114476780842e-40
7.2921706469685e-40
6.8701106090198e-41
1.7253734852516e-40
1.6165103900185e-41
4.0703753840143e-41
3.7930670583629e-42
9.5752433099588e-42
8.8763652255357e-43
2.246291858147e-42
2.0717916757026e-43
5.2555567034152e-43
4.8234228014801e-44
1.2264247746434e-43
1.1201946872018e-44
2.8547272170765e-44
2.5953102991872e-45
6.6285777788501e-45
5.9989604280095e-46
1.535449763821e-45
1.3833071252131e-46
3.5485872367117e-46
3.1873638117389e-47
8.1791873963685e-47
7.2090434644174e-48
1.8898145430277e-47
1.9177967027982e-48
4.1302794453229e-48
1.4216549190072e-48
0
0
0
0
0
0
0
0
2.2203285290492e-44
2.2195335782427e-45
4.7536151708095e-28
2.0994632760637e-28
2.9481755613354e-26
1.313549133363e-26
9.0446697605527e-25
4.0658078086526e-25
1.8228614159945e-23
8.2698156619507e-24
2.7074325022671e-22
1.2399797582999e-22
3.1543085825004e-21
1.4584834951179e-21
3.0072458600433e-20
1.4031332025122e-20
2.4185125691422e-19
1.1375036197112e-19
1.6841752569018e-18
7.9763246749006e-19
1.0303349693242e-17
4.9231989637891e-18
5.5191715896692e-17
2.6772316759579e-17
2.5518576771169e-16
1.2710200158184e-16
9.9548403061592e-16
5.17681757061e-16
3.1577499749825e-15
1.7332521823688e-15
8.4691114579555e-15
4.4945418344161e-15
3.0878798198924e-14
1.2146622712416e-14
1.8372302759277e-13
4.9722142504466e-14
3.2112921744664e-12
4.4722524975227e-13
4.0281943447323e-11
5.8309650772318e-12
5.5266686077809e-10
1.432699877365e-10
5.6434012973448e-10
4.9865098157084e-10
3.1540808230469e-10
5.8669240407335e-10
1.5938274513033e-10
3.4252378884589e-10
8.1209399433063e-11
1.7750131691105e-10
4.6914505076729e-11
9.6445198230747e-11
2.9783563548304e-11
5.8401407796412e-11
1.8219999237796e-11
3.6290701673112e-11
9.1891757569551e-12
2.0144626549155e-11
3.2772257222221e-12
8.5870125706093e-12
8.0595519093217e-13
2.4714588891438e-12
2.0423939880123e-13
5.2158821063533e-13
7.5873818699316e-14
1.2486025767409e-13
3.6036301349685e-14
4.5539509172295e-14
1.8649463956854e-14
2.1747405258346e-14
9.7700117460016e-15
1.1296135228951e-14
5.0418269673941e-15
5.9598326413165e-15
2.5396774500735e-15
3.1030626402342e-15
1.246020139499e-15
1.5768085077558e-15
5.9596601475602e-16
7.7977526285165e-16
2.7835960559868e-16
3.7559207638649e-16
1.2692722785283e-16
1.7640324809646e-16
5.6217832241036e-17
8.0638601489673e-17
2.3929125991606e-17
3.5628727273168e-17
9.6524670766362e-18
1.5038781403781e-17
3.6450266911326e-18
5.9863508066468e-18
1.2825368013022e-18
2.2270747963358e-18
4.2298513311107e-19
7.7385005322496e-19
1.3264948137906e-19
2.5332562213859e-19
4.0203199414593e-20
7.9243723085493e-20
1.1918894641055e-20
2.4019563204087e-20
3.4779092965797e-21
7.1238328068035e-21
1.0009661611274e-21
2.0779445668194e-21
2.8429626076376e-22
5.9739262656342e-22
7.9721887955453e-23
1.6944032132295e-22
2.2089271184405e-23
4.7452189518006e-23
6.0533539039329e-24
1.3133222925504e-23
1.6421564275817e-24
3.5955555456023e-24
4.4133725313283e-25
9.7456292336068e-25
1.1758255680058e-25
2.6171060591487e-25
3.107215696561e-26
6.9674357558775e-26
8.1483495098427e-27
1.8399376182369e-26
2.1214395720618e-27
4.8219654267272e-27
5.4856677612961e-28
1.2546635767718e-27
1.4093700446343e-28
3.2425435631115e-28
3.5988341910381e-29
8.3263907125109e-29
9.1363336890877e-30
2.1251189861244e-29
2.3066222424335e-30
5.3925724156548e-30
5.7927773906437e-31
1.3608647594828e-30
1.4474577588243e-31
3.4162578276753e-31
3.5993895044096e-32
8.533063336312e-32
8.9093087185266e-33
2.1211547611874e-32
2.1955004763419e-33
5.2485630309659e-33
5.387335303942e-34
1.2929765993957e-33
1.3165487729996e-34
3.1717511262874e-34
3.2047143382348e-35
7.7488408784542e-35
7.7713039444055e-36