/*--------------------------------*- C++ -*----------------------------------*\
  =========                 |
  \\      /  F ield         | OpenFOAM: The Open Source CFD Toolbox
   \\    /   O peration     | Website:  https://openfoam.org
    \\  /    A nd           | Version:  7
     \\/     M anipulation  |
\*---------------------------------------------------------------------------*/
FoamFile
{
    version     2.0;
    format      ascii;
    class       volScalarField;
    location    "1.3";
    object      alpha.water;
}
// * * * * * * * * * * * * * * * * * * * * * * * * * * * * * * * * * * * * * //

dimensions      [0 0 0 0 0 0 0];

internalField   nonuniform List<scalar> 
6000
(
0
0
0
0
0
0
0
0
0
0
0
0
0
0
0
0
0
0
0
0
0
0
0
0
0
0
0
0
0
0
0
0
0
0
0
0
0
0
0
0
0
0
0
0
0
0
0
0
0
0
0
0
0
0
0
0
0
0
0
0
0
0
0
0
0
0
0
0
0
0
0
0
0
0
0
0
0
0
0
0
0
0
0
0
0
0
0
0
0
0
0
0
0
0
0
0
0
0
0
0
0
0
0
0
0
0
0
0
0
0
0
0
0
0
0
0
0
0
0
0
0
0
0
0
0
0
0
0
0
0
0
0
0
0
0
0
0
0
0
0
0
0
0
0
0
0
0
0
0
0
0
0
0
0
0
0
0
0
0
0
0
0
0
0
0
0
0
0
0
0
0
0
0
0
0
0
0
0
0
0
0
0
0
0
0
0
0
0
0
0
0
0
0
0
0
0
0
0
0
0
0
0
0
0
0
0
0
0
0
0
0
0
0
0
0
0
0
0
0
0
0
0
0
0
0
0
0
0
0
0
0
0
0
0
0
0
0
0
0
0
0
0
0
0
0
0
0
0
0
0
0
0
0
0
0
0
0
0
0
0
0
0
0
0
0
0
0
0
0
0
0
0
0
0
0
0
0
0
0
0
0
0
0
0
0
0
0
0
0
0
0
0
0
0
0
0
0
0
0
0
0
0
0
0
0
0
0
0
0
0
0
0
0
0
0
0
0
-1.098417703185e-71
5.2687587307155e-72
1.2206070008291e-55
5.8292708944826e-54
3.9626060300782e-53
4.6818815372295e-52
2.1042612896869e-51
9.07179462901e-51
3.8900370268458e-50
1.4964160699297e-49
6.2406281708276e-49
1.3090996418114e-47
2.9021901985355e-45
1.3594179181693e-44
3.1255871696731e-44
3.2056475483641e-43
6.7810928792306e-43
1.2877632014835e-42
1.5023969105411e-42
1.3929202442553e-42
1.2359669825649e-42
1.1400242574021e-42
1.0528441026324e-42
1.126861233497e-42
1.03819430836e-42
6.8307027274268e-43
2.6746961513475e-43
6.5145672506203e-44
1.1330366233033e-44
1.9107714918267e-45
2.61884021955e-46
4.7487602253283e-47
6.5494643075035e-48
9.3189353736536e-49
1.957710690756e-49
2.4250607513522e-50
6.7853904640556e-51
7.7599809469313e-52
1.3863175500958e-52
4.4319813328999e-53
5.239345514431e-54
1.5940011604563e-54
1.9264908896557e-55
3.4489781508326e-56
1.1295788591489e-56
1.3268111118461e-57
3.9308458221133e-58
4.8784215274495e-59
8.7518874910029e-60
2.9264349055153e-60
3.3943146573467e-61
1.0230825586632e-61
1.2533436547551e-62
2.2307134776298e-63
9.4811861074434e-64
9.1884353810221e-65
2.8122100976182e-65
3.3316979694697e-66
5.9348748656717e-67
1.9331986919694e-67
2.3310704935957e-68
2.7489190625269e-69
7.5617273973055e-70
1.4716700401202e-70
2.7424350831549e-71
1.1698378452892e-71
3.0920102706229e-72
5.274002899637e-73
1.1782608735292e-73
1.0168605554293e-74
1.6903254139221e-75
7.292391273179e-76
1.779453289231e-76
1.4965448293895e-77
2.4920076796838e-78
1.0811913561484e-78
2.9201234423554e-79
6.6943751410379e-80
1.3234093014842e-80
9.9038310799272e-82
3.8981806330736e-82
8.9391976411654e-83
3.7270951661713e-83
0
0
0
0
0
0
0
0
0
4.1279502728659e-39
3.2592249648639e-39
0
1.5364236673621e-37
-1.0356103606531e-45
-1.0440487148798e-54
0
0
2.9480212118528e-38
-1.1885401485224e-55
1.3050608935997e-55
4.0620020313291e-54
2.9861424571678e-53
2.7943030097983e-40
2.3332154558617e-51
7.0386940123853e-51
3.0118862616834e-50
1.1805599592602e-49
4.9630544186298e-49
9.3702585910357e-48
1.7317542487659e-45
7.7264293450454e-42
3.4296493109247e-44
2.0109684101701e-43
2.326781469933e-41
1.3419153073459e-42
1.1879811928936e-39
2.4360930393696e-42
1.3211462203899e-42
1.284076607791e-41
1.1001973029377e-42
1.2232645014539e-42
1.0902513449569e-42
8.1774172622404e-44
4.5199466133412e-44
4.0082724237812e-44
9.3543232029147e-45
1.4986559308659e-45
6.6425751866082e-46
1.8638599291915e-45
5.558921076653e-47
5.4019303198792e-48
2.9642845835062e-48
1.6326375999327e-49
3.2937313947977e-48
5.8852718768816e-51
1.1027573617339e-51
3.8828459329334e-50
4.0568468971541e-53
3.1845391881185e-51
1.4869887836926e-54
2.7869866346597e-55
5.2223593695365e-53
1.0290676587886e-56
4.5288405390192e-54
3.7700275094528e-58
7.0707243918938e-59
7.0607308307087e-56
2.6198111166789e-60
5.5923016933466e-57
9.6264661296166e-62
1.0216447965631e-61
2.5525528661396e-58
1.7135017353271e-62
1.4804479216146e-59
2.528075277703e-65
4.7427720539931e-66
6.4020095527726e-61
4.2423130932004e-65
3.2320183036203e-68
1.4029546376202e-66
1.1686096453898e-69
1.3735397894093e-65
1.1838587596759e-64
2.8815449250325e-65
1.1080698573305e-66
1.5496336118709e-65
9.3196513363757e-70
1.3298004855077e-74
1.5595783450548e-68
1.0035470647915e-68
1.049426563952e-76
9.1618347328029e-71
8.0290623138596e-70
1.539479085069e-70
1.9763289264474e-71
6.4297829030963e-71
4.0683167034564e-75
1.0121441031581e-71
3.4615369081518e-73
9.5925408846523e-73
0
0
0
0
0
0
0
3.2978588502929e-29
1.8641795363412e-27
5.0828276395152e-26
8.8375210267284e-25
1.0993536755819e-23
1.00531500999e-22
7.1071336046807e-22
4.8002479825306e-21
3.6361378321683e-20
2.7187537450022e-19
1.7465958046524e-18
9.2837881041001e-18
4.0063379512729e-17
1.3969966322442e-16
3.9694682852841e-16
9.3574380291308e-16
1.8830415527327e-15
3.3557461435306e-15
5.4798070678935e-15
8.3299638639807e-15
1.1549121538786e-14
1.3730009353971e-14
1.4015285081132e-14
1.3690075897992e-14
1.2581189915421e-14
1.0326794052046e-14
7.1488113102199e-15
3.9351743275206e-15
1.6294100032174e-15
5.0209327681755e-16
1.2668221768876e-16
3.150239260524e-17
8.7516782682593e-18
2.7114785660518e-18
8.9369151004352e-19
3.0222256858403e-19
1.0266017151406e-19
3.4548480869153e-20
1.1395707448708e-20
3.6510876088089e-21
1.1290766232548e-21
3.3646796357241e-22
9.7006157914421e-23
2.7265702629051e-23
7.529335107123e-24
2.0531000610297e-24
5.5392353114625e-25
1.4791673455545e-25
3.9096578214304e-26
1.0232803682941e-26
2.6539781726431e-27
6.8262070258184e-28
1.7423060376228e-28
4.4152834059446e-29
1.1113997986472e-29
2.7798891013819e-30
6.9116919598765e-31
1.7087669386486e-31
4.2019625000674e-32
1.0280402547473e-32
2.5030195859706e-33
6.0661527566406e-34
1.4636879119171e-34
3.5168503825408e-35
8.4160364487055e-36
2.0062365077328e-36
4.7648030375044e-37
1.1276103558587e-37
2.6593978641194e-38
6.2513365909548e-39
1.4648039752221e-39
3.4217780702311e-40
7.9695842154275e-41
1.8508625371987e-41
4.2865521460437e-42
9.900931404148e-43
2.2809432592873e-43
5.2415290514603e-44
1.2015433103924e-44
2.7478307173653e-45
6.2695922994194e-46
1.4273012906848e-46
3.2422460731936e-47
7.3494684279832e-48
1.6625321562967e-48
3.7532868254248e-49
8.4567567065518e-50
1.9017935383279e-50
4.2693368533698e-51
9.5556720769923e-52
2.1631241359282e-52
4.2411348145645e-53
1.7346553013115e-53
0
0
0
0
0
0
3.0376607151911e-29
2.4812530703177e-27
9.2005847159133e-26
2.1348362298619e-24
3.5029287212486e-23
4.3468447940126e-22
4.1530406604248e-21
3.0902932053746e-20
1.8688653209582e-19
1.0000215458444e-18
6.0909053736833e-18
4.4387203346506e-17
2.6751368611597e-16
1.3371382966685e-15
5.4928366351438e-15
1.6756865712851e-14
3.7427083333309e-14
6.534512532459e-14
9.9344418068387e-14
1.452949622898e-13
2.1238763361426e-13
2.9979629008548e-13
3.730592118342e-13
3.9008632760203e-13
3.8306459870973e-13
3.5547892053574e-13
2.9618356557285e-13
2.0833302390545e-13
1.1706437266527e-13
5.0065490252742e-14
1.6335605578652e-14
4.5017524973956e-15
1.2390122355043e-15
3.7692262197798e-16
1.2609460032533e-16
4.4502850093254e-17
1.6026129888734e-17
5.7697872417791e-18
2.0513274337595e-18
7.1386411292932e-19
2.4117025062061e-19
7.8496589985071e-20
2.4505425453544e-20
7.3468889033416e-21
2.129856204106e-21
6.0259867898154e-22
1.6768788878974e-22
4.6091944562869e-23
1.2531398906099e-23
3.3705306106418e-24
8.9701784325056e-25
2.3634889233406e-25
6.17018411137e-26
1.5972388676739e-26
4.1024924886384e-27
1.046061631042e-27
2.6490472812349e-28
6.6652568865322e-29
1.6668492606217e-29
4.1445000282641e-30
1.0248860498416e-30
2.5213093230037e-31
6.1721014632904e-32
1.5038230694539e-32
3.6476212888248e-33
8.809629188016e-34
2.118945167874e-34
5.0765620416472e-35
1.211647195607e-35
2.8813976506901e-36
6.8282689478719e-37
1.612703518973e-37
3.7965365359029e-38
8.9096215208952e-39
2.084568381351e-39
4.8629767833048e-40
1.1312508084466e-40
2.6243726741167e-41
6.0721035226222e-42
1.40131286912e-42
3.22586934871e-43
7.408084571452e-44
1.6972382429311e-44
3.8795931900617e-45
8.8483746958374e-46
2.0137286010077e-46
4.5732343100102e-47
1.0364666148153e-47
2.3443104077406e-48
5.2926483869223e-49
1.1912644488724e-49
2.7109939393282e-50
5.3540849055744e-51
2.1934229885095e-51
0
0
0
0
0
1.3252106200566e-29
1.5018114195525e-27
7.1128183046631e-26
2.0191777882745e-24
4.0039560815164e-23
6.0112588092044e-22
7.1441845827783e-21
6.8563182758131e-20
5.3545915833426e-19
3.3888212324591e-18
1.7221793594254e-17
8.0361181208851e-17
3.9726999717812e-16
3.3174370916287e-15
3.2718952767128e-14
1.58862591345e-13
6.0902039156516e-13
1.4557920462849e-12
1.6747132055088e-12
1.706731510703e-12
1.8471059217223e-12
2.3073597607903e-12
3.2107629838029e-12
4.2941582509421e-12
4.8666728738321e-12
4.8482611448344e-12
4.58691825611e-12
3.890966477114e-12
2.748742483131e-12
1.5376348450498e-12
6.6147051416466e-13
2.2594114400645e-13
6.8763581065941e-14
2.1430389210769e-14
7.2863298216349e-15
2.6653044194657e-15
1.0126426510844e-15
3.8869824028155e-16
1.4830289376229e-16
5.5773894585183e-17
2.0556574386178e-17
7.3704551470672e-18
2.5462901788863e-18
8.4046116588769e-19
2.6426336069271e-19
7.9522442791534e-20
2.3138659064512e-20
6.5820614299956e-21
1.8444156903837e-21
5.1080515592929e-22
1.3990140591247e-22
3.7891093945814e-23
1.0151429859583e-23
2.6921754885522e-24
7.0735576676044e-25
1.8427473721248e-25
4.7627483818521e-26
1.221896455172e-26
3.1130637920694e-27
7.8793885197168e-28
1.9820166021783e-28
4.9565297216352e-29
1.2326393075545e-29
3.0493178175243e-30
7.5056461843269e-31
1.838627115823e-31
4.4834570404433e-32
1.0885107733349e-32
2.6316801989397e-33
6.3370742084226e-34
1.520090016096e-34
3.6327839786945e-35
8.650880744882e-36
2.0529977864007e-36
4.8559866339103e-37
1.1449264511697e-37
2.6911390667242e-38
6.3066364579297e-39
1.4736852815317e-39
3.4339731568271e-40
7.9801682331649e-41
1.8496350469496e-41
4.2761499576622e-42
9.8615467801145e-43
2.2687840677653e-43
5.2074680977534e-44
1.1925411034238e-44
2.724959319162e-45
6.2131588983461e-46
1.4136791787346e-46
3.2103010902861e-47
7.2675514123751e-48
1.6629815423088e-48
3.3083292036711e-49
1.3582161698347e-49
0
0
0
0
0
3.8424150719746e-28
3.0265556209601e-26
1.1383035302732e-24
2.7451876793777e-23
4.8060795616719e-22
6.5516300774704e-21
7.2680039396116e-20
6.7224111169515e-19
5.2441397033657e-18
3.4377633384931e-17
1.850915196853e-16
8.240982424075e-16
3.157178841577e-15
1.6163243272292e-14
1.1073044307966e-13
1.5983712816005e-12
3.6869318874464e-11
1.2118387541518e-10
1.2566015261467e-10
9.5498052435248e-11
6.1386959434789e-11
4.1722655228025e-11
3.5962289148001e-11
3.7635416753223e-11
4.008606601798e-11
4.0126131119597e-11
3.7506403329676e-11
3.0563249240298e-11
2.059907645303e-11
1.1073681938297e-11
4.7222336269691e-12
1.7034384547509e-12
5.8657912918305e-13
2.1186963186763e-13
8.1952173428104e-14
3.3208428049903e-14
1.3707096240119e-14
5.6480285150033e-15
2.2990231346716e-15
9.2068138826788e-16
3.6163315225864e-16
1.3843327570204e-16
5.1104187869162e-17
1.7985067332205e-17
5.9894423517506e-18
1.8889452805749e-18
5.6940009145992e-19
1.6626121430261e-19
4.7575649059558e-20
1.3428977605504e-20
3.7469112577633e-21
1.033492158785e-21
2.8178917670585e-22
7.5985463251039e-23
2.0280983669482e-23
5.3626796205043e-24
1.4058359372723e-24
3.6560269650146e-25
9.4367989288293e-26
2.4186536236798e-26
6.1578917917104e-27
1.5579746498043e-27
3.9183646831312e-28
9.7993766599463e-29
2.437600737093e-29
6.032655257376e-30
1.4857258602586e-30
3.6420647065974e-31
8.888387115518e-32
2.1599605240154e-32
5.2274725233371e-33
1.2601760310456e-33
3.0264253286562e-34
7.2418507557232e-35
1.7268227730783e-35
4.1037300109344e-36
9.7206124198113e-37
2.29530489557e-37
5.4033663626744e-38
1.2682608767576e-38
2.9683389704327e-39
6.9281542273058e-40
1.6127134815584e-40
3.7442697552048e-41
8.6712200737732e-42
2.0032160233292e-42
4.6167856692359e-43
1.0615597105027e-43
2.4353952473211e-44
5.574894880077e-45
1.2735535094557e-45
2.9000994996042e-46
6.6733422480872e-47
1.3372510510216e-47
5.5041106591072e-48
0
0
0
0
7.9066205519891e-42
5.2592027355069e-27
3.5684718471901e-25
1.1894648991051e-23
2.5920968693855e-22
4.152541609906e-21
5.2210773418226e-20
5.3863475933425e-19
4.6926347935623e-18
3.525994024454e-17
2.289378239165e-16
1.2738966269862e-15
5.9335616481675e-15
2.2486994346671e-14
7.8727542606263e-14
2.9972152946194e-13
2.451801636078e-12
2.9894934575415e-11
3.8619182845865e-10
4.2177956597518e-09
4.7956901543142e-09
3.7320185657068e-09
2.2544778625494e-09
1.1730628983753e-09
6.7640955208871e-10
5.0025005256632e-10
4.0586418973474e-10
3.1613142553543e-10
2.1419081995927e-10
1.17062073956e-10
5.1175798637496e-11
1.9592617225414e-11
7.4159585545157e-12
2.9879771817299e-12
1.2884522792455e-12
5.7941833726312e-13
2.6459815080125e-13
1.203063835239e-13
5.3866599693213e-14
2.3664143519559e-14
1.0199363796693e-14
4.309220395366e-15
1.7757943006963e-15
7.0652079371485e-16
2.6781635415824e-16
9.5613449695981e-17
3.2007742440354e-17
1.0104551705637e-17
3.0499901524221e-18
8.9408623833394e-19
2.5744084775677e-19
7.3188725864568e-20
2.0565612503173e-20
5.7104132490542e-21
1.5669261645565e-21
4.2516967397938e-22
1.141840180128e-22
3.0378052675037e-23
8.0120190676953e-24
2.0960760860875e-24
5.4421733017549e-25
1.402917135022e-25
3.5922199546712e-26
9.1395844562078e-27
2.3113697062834e-27
5.811998427865e-28
1.4535059751453e-28
3.61622574491e-29
8.9525117430276e-30
2.2058720965804e-30
5.4106592933751e-31
1.3214067831286e-31
3.2137768714286e-32
7.7850064289007e-33
1.8785936868458e-33
4.5164759209391e-34
1.081976848589e-34
2.5831082696596e-35
6.1464639450032e-36
1.4578569190739e-36
3.4471272922649e-37
8.1263607288281e-38
1.9101717039516e-38
4.477393643859e-39
1.0466265307247e-39
2.4400962998473e-40
5.6741970080372e-41
1.316181912861e-41
3.0455925729796e-42
7.0307452097804e-43
1.6193034243765e-43
3.7215529863586e-44
8.5251381251143e-45
1.9728620909291e-45
3.9818777222914e-46
1.6437541813282e-46
0
0
0
0
-5.355059448419e-54
4.4965643372942e-26
2.8313295782604e-24
8.8232145862313e-23
1.8073822319875e-21
2.7303297108636e-20
3.2372810512067e-19
3.1422564509773e-18
2.5730064088408e-17
1.8244110851561e-16
1.1380721722198e-15
6.2385927192441e-15
2.9694395313906e-14
1.2041912749922e-13
4.0269557323396e-13
1.0789438910724e-12
3.6470788346737e-12
1.8440129820103e-11
2.3633768377091e-10
2.8019250013112e-09
5.5290774432097e-08
1.163519853871e-07
7.9142747785516e-08
4.1455210856139e-08
2.0980967922304e-08
1.1309941947019e-08
7.0189891452499e-09
4.4802902979032e-09
2.5205661290881e-09
1.0662453503455e-09
2.9454077427573e-10
6.2021115047223e-11
1.991178877897e-11
9.4928768015871e-12
4.9916541792684e-12
2.6417624914844e-12
1.3771076244539e-12
7.0122118268974e-13
3.4772010134566e-13
1.6794058384823e-13
7.9144700215794e-14
3.6435421787516e-14
1.6343399254966e-14
7.0831505185255e-15
2.9261273675358e-15
1.1353389185468e-15
4.0956881663943e-16
1.3735632491654e-16
4.3314438980103e-17
1.308109765367e-17
3.8490544300597e-18
1.1150226373178e-18
3.1915359871118e-19
9.0271518003524e-20
2.5220355351069e-20
6.9614176953163e-21
1.8999455531013e-21
5.1322271638932e-22
1.3733134719649e-22
3.6428092216727e-23
9.5841696976734e-24
2.5023002728172e-24
6.486133988864e-25
1.6698275727786e-25
4.2712823269844e-26
1.0859076206017e-26
2.7447917957296e-27
6.8997040674351e-28
1.7253162468856e-28
4.2926750342743e-29
1.062929311868e-29
2.6199126858423e-30
6.4292157087548e-31
1.571067757768e-31
3.823573348541e-32
9.2693379103382e-33
2.2386991123784e-33
5.3872798808264e-34
1.2918904434592e-34
3.0875674965619e-35
7.3551439188493e-36
1.746611831057e-36
4.1350061942902e-37
9.7605023773657e-38
2.2973329815024e-38
5.3922374741055e-39
1.2622431102652e-39
2.9469981003892e-40
6.862965425717e-41
1.5942997886398e-41
3.6947057024016e-42
8.5430702596827e-43
1.9687666390936e-43
4.5822649214248e-44
9.3147106572999e-45
3.8577025741959e-45
0
0
0
0
0
2.7368253531539e-25
1.6526713960044e-23
4.9339753941593e-22
9.6839682062418e-21
1.4019567551339e-19
1.5938192532018e-18
1.4810201240275e-17
1.1559213277979e-16
7.7541575150525e-16
4.5708041831789e-15
2.3964099031838e-14
1.1218603898448e-13
4.6328993131806e-13
1.671532636788e-12
4.5799917170019e-12
9.5488981602076e-12
2.1413830360072e-11
9.0526035481216e-11
1.4202028245689e-09
2.4036243639999e-08
2.3961291792763e-07
1.3918366401403e-06
1.1049983504837e-06
6.4758073544143e-07
3.5689057067566e-07
1.6977214785699e-07
7.891249333085e-08
3.7699221520521e-08
1.597559342863e-08
4.5132702745659e-09
6.1797455036453e-10
5.0462331216094e-11
1.8037905955941e-11
1.2172806736669e-11
8.0067552485237e-12
4.7865945096125e-12
2.751419285732e-12
1.538179078658e-12
8.3315510849845e-13
4.3746767917478e-13
2.2315084739292e-13
1.1056741793119e-13
5.2896852550161e-14
2.4126957270316e-14
1.0317846856115e-14
4.0743846869759e-15
1.4751812826715e-15
4.9271433397945e-16
1.5465251777102e-16
4.6677476699293e-17
1.3788401078776e-17
4.0195345292592e-18
1.1581340022145e-18
3.2956439040202e-19
9.2589273791457e-20
2.5695118997279e-20
7.0508679832337e-21
1.9150165178597e-21
5.1522857352234e-22
1.374079774716e-22
3.6345460645413e-23
9.5395829530074e-24
2.4856772335186e-24
6.4324113973988e-25
1.653780744193e-25
4.225749796552e-26
1.0734584822239e-26
2.7117214266741e-27
6.813905906906e-28
1.7035017828233e-28
4.2381939046328e-29
1.0495429279503e-29
2.5875207895597e-30
6.3519808925331e-31
1.5529179868881e-31
3.7815470794052e-32
9.1735106631221e-33
2.2172069893532e-33
5.3399540510993e-34
1.2816875530154e-34
3.0661256316731e-35
7.3115233636358e-36
1.7381226575192e-36
4.1195494240847e-37
9.7354428326523e-38
2.2942266926836e-38
5.3917236139862e-39
1.2637578378622e-39
2.9544595575698e-40
6.8896555418482e-41
1.6028604460328e-41
3.7162413475009e-42
8.6997824511007e-43
1.7810818437361e-43
7.4024289785684e-44
0
0
0
0
0
1.2759462818529e-24
7.5159411650669e-23
2.1832134153007e-21
4.1600933200566e-20
5.843425832583e-19
6.431234288851e-18
5.763443160926e-17
4.3198371898893e-16
2.7677597488136e-15
1.5462329086105e-14
7.6543894196831e-14
3.401298721023e-13
1.3829658186569e-12
5.0350520071035e-12
1.6113022700813e-11
3.6408161215115e-11
5.4609786728405e-11
8.24594452287e-11
4.3984665974711e-10
6.0745218283885e-09
1.3063227181886e-07
1.3798569435491e-06
1.0295495744185e-05
1.6633992107807e-05
1.1224001352025e-05
4.2775103529475e-06
1.4547798737104e-06
6.6785492006423e-07
3.111312340272e-07
1.0323490907529e-07
1.7573695898604e-08
9.9084475742111e-10
7.3847716743972e-11
2.407613265114e-11
1.47645588695e-11
1.1068091320785e-11
7.7236949262411e-12
4.8782380552748e-12
2.9606751335957e-12
1.7493489384754e-12
1.0035563877621e-12
5.5803537265112e-13
2.9907548875793e-13
1.526431981841e-13
7.2894613154464e-14
3.1955970587874e-14
1.2684951941544e-14
4.5557328849364e-15
1.5039088522073e-15
4.6883290858256e-16
1.4161978905669e-16
4.2078913237851e-17
1.2353633689518e-17
3.5819983296742e-18
1.0248784663011e-18
2.8940030555289e-19
8.0723433758509e-20
2.2266211370811e-20
6.0792823094207e-21
1.6441828975155e-21
4.4077231476705e-22
1.1718819123849e-22
3.0915308207703e-23
8.0961463709704e-24
2.1055956540513e-24
5.4403145995658e-25
1.3969205090631e-25
3.5657566584146e-26
9.0507950543815e-27
2.2850186617189e-27
5.7393813964732e-28
1.4345289804502e-28
3.5687171687401e-29
8.8380592993125e-30
2.1793222068311e-30
5.351535317043e-31
1.308867819496e-31
3.1888744482766e-32
7.740396657718e-33
1.8721022624231e-33
4.5122132397942e-34
1.0839107178791e-34
2.5953064734148e-35
6.1946943746404e-36
1.4741093824704e-36
3.4975057687775e-37
8.2745495079776e-38
1.9521978891225e-38
4.5933743933094e-39
1.0779475676833e-39
2.5234555858959e-40
5.8866249944125e-41
1.3861993481688e-41
2.8581960606856e-42
1.1924179206544e-42
0
0
0
0
0
4.7372655222878e-24
2.75479276119e-22
7.880787109188e-21
1.4754679318904e-19
2.0294923250764e-18
2.1824350864428e-17
1.9070174690623e-16
1.390276142648e-15
8.5896065649024e-15
4.5659862316016e-14
2.1270946550343e-13
8.8200494632009e-13
3.342173784501e-12
1.1729640279189e-11
3.9266202942514e-11
1.0997301005827e-10
2.2858676660575e-10
2.3317218683323e-10
2.7081135502994e-10
1.2940658926276e-09
3.750388415909e-08
7.1020339366657e-07
1.2060465320275e-05
9.2042276939561e-05
9.217268501461e-05
5.7807399270537e-05
2.9425194779041e-05
1.4042442558836e-05
6.5819566669634e-06
2.5055216139419e-06
5.7359829048914e-07
5.0752364715983e-08
1.8470025531798e-09
2.4790867573727e-10
6.9547074989621e-11
2.1733413954844e-11
1.4106029515119e-11
1.1176096373034e-11
8.1083386035498e-12
5.3517270970351e-12
3.4304861090888e-12
2.1516168860143e-12
1.303850871872e-12
7.5209683952519e-13
4.0503933195804e-13
1.9918256227185e-13
8.7719694254777e-14
3.4332243524147e-14
1.2078731217785e-14
3.9305175148004e-15
1.2220444050238e-15
3.7124843682012e-16
1.1119910675853e-16
3.2877032938764e-17
9.5871362973966e-18
2.7569399438482e-18
7.8238559540728e-19
2.1934999667812e-19
6.081800043304e-20
1.6691189171377e-20
4.5375274632054e-21
1.2226379946148e-21
3.2670938124427e-22
8.6621377344074e-23
2.2797259134712e-23
5.9581361649176e-24
1.5469224270229e-24
3.9911950241052e-25
1.0236400934024e-25
2.6105035969941e-26
6.6213581741672e-27
1.6707834456318e-27
4.1950812908683e-28
1.0483291741584e-28
2.6078088827855e-29
6.458813585125e-30
1.5929481905579e-30
3.9128287357849e-31
9.5738025606736e-32
2.3336881619702e-32
5.6679062570206e-33
1.3717579103925e-33
3.3087029196319e-34
7.9544711509851e-35
1.9062650285479e-35
4.5542463601367e-36
1.0848050007982e-36
2.5764833622092e-37
6.1021172419624e-38
1.4412608293828e-38
3.3953846643859e-39
7.9702012529785e-40
1.8881270449029e-40
3.92111935188e-41
1.6425139287391e-41
0
0
0
2.7079378887725e-54
2.3266682767449e-38
1.4195880237281e-23
8.2366537590627e-22
2.3429646293649e-20
4.3511012173999e-19
5.9117014646337e-18
6.2678621059505e-17
5.3965903631574e-16
3.8612573414228e-15
2.3383342705504e-14
1.2152722278349e-13
5.4368679229817e-13
2.1094590440183e-12
7.2840900226059e-12
2.3065829362603e-11
6.997377882748e-11
2.1468049841947e-10
6.1836957278481e-10
1.2769008111322e-09
1.3767771202276e-09
1.7495799827154e-09
9.543992599242e-09
1.5679204098613e-07
4.8214022594244e-06
3.3622773038989e-05
0.00032467208043482
0.00066851130704275
0.00044644136239127
0.00024427510650638
0.00013124897875693
5.8745314460203e-05
1.741231365893e-05
2.3587975077054e-06
9.1559569725995e-08
6.1084131204333e-09
1.447579527487e-09
2.9373386493493e-10
6.7961504381976e-11
2.1471970767284e-11
1.496917984176e-11
1.2502693290852e-11
9.5167982850649e-12
6.673464788223e-12
4.5302574317407e-12
2.9524442764774e-12
1.7987973400003e-12
9.9600136601281e-13
4.889349100883e-13
2.1024001936931e-13
7.9823922695075e-14
2.7498660321634e-14
8.8989748471582e-15
2.7818451779837e-15
8.5253687194584e-16
2.5736380965839e-16
7.6568265990535e-17
2.2447937099847e-17
6.4885097240984e-18
1.8508906206114e-18
5.2163073702011e-19
1.4538742046508e-19
4.0108611314224e-20
1.0959840776379e-20
2.9682114380353e-21
7.9716463144105e-22
2.1241178934414e-22
5.61798797538e-23
1.4754706724231e-23
3.8493550489484e-24
9.9792756613465e-25
2.571565051514e-25
6.5888015508646e-26
1.6789552834742e-26
4.2559884293336e-27
1.0734640666545e-27
2.6945771514247e-28
6.7327710128086e-29
1.6748489069848e-29
4.1486745008665e-30
1.0234432466959e-30
2.5147994320501e-31
6.1558605971301e-32
1.5013333707145e-32
3.648566681962e-33
8.8363941404998e-34
2.1329643582389e-34
5.1320795197121e-35
1.2309703154095e-35
2.9436566233919e-36
7.0186133197301e-37
1.6686817577704e-37
3.9566759283044e-38
9.347185320848e-39
2.2279510078072e-39
4.6605312452685e-40
1.9607342019778e-40
0
0
0
1.2845401377675e-52
1.5184921438427e-37
3.330412523325e-23
1.9508045267006e-21
5.5746302365862e-20
1.0365621366595e-18
1.4052359504436e-17
1.4826234382204e-16
1.2670181508812e-15
8.9704893146985e-15
5.3758739974166e-14
2.7516832648758e-13
1.2161719176233e-12
4.6672028180234e-12
1.5337128867598e-11
4.3833118377636e-11
1.1490130328461e-10
3.0468230406552e-10
9.6879546926433e-10
4.0162089676383e-09
1.2152545417419e-08
2.0962308869425e-08
3.2197198231096e-08
1.1590090267987e-07
9.790889111452e-07
9.593346699714e-06
0.0001416102992327
0.0010760084079347
0.0042169654250437
0.0033939621753209
0.0021574502174561
0.0012126085865139
0.00045835027480903
8.5468377088518e-05
4.7139881524947e-06
1.8201816355633e-07
3.7259237646129e-08
7.9073901166731e-09
1.499453343323e-09
2.9586133358421e-10
6.9386725683803e-11
2.2563961656966e-11
1.8190479430602e-11
1.6339721746245e-11
1.3126764635983e-11
9.6521041767362e-12
6.5758255890653e-12
4.0531440906564e-12
2.2022981346331e-12
1.0427309832348e-12
4.3232594204838e-13
1.6022954162517e-13
5.4736097334431e-14
1.7767712609903e-14
5.5983836301415e-15
1.7299378372389e-15
5.2591964373158e-16
1.5739882066469e-16
4.6396125843805e-17
1.3481719384287e-17
3.8661541124778e-18
1.0953752411589e-18
3.0691404982057e-19
8.5113187994337e-20
2.3378066429639e-20
6.3638511210331e-21
1.717791009178e-21
4.6001787854993e-22
1.2227213978756e-22
3.2270437357753e-23
8.459933146384e-24
2.2037384078625e-24
5.7058224241706e-25
1.4688073701695e-25
3.7602222495894e-26
9.575675521636e-27
2.4262193692859e-27
6.1176703932883e-28
1.5354011930653e-28
3.8363328316867e-29
9.5442765006803e-30
2.3646733961164e-30
5.8353323797274e-31
1.4344562423236e-31
3.5131260298333e-32
8.5731230932921e-33
2.0848483758488e-33
5.0529894298679e-34
1.2206935575617e-34
2.9396302846877e-35
7.057455435645e-36
1.6893072867519e-36
4.0322948703007e-37
9.5884157830185e-38
2.2998932354481e-38
4.8466654605636e-39
2.048521309696e-39
0
0
0
6.9485257064843e-54
1.0309981059438e-53
5.3056625089052e-23
3.1946590254573e-21
9.328980820739e-20
1.7633949871096e-18
2.4240120113086e-17
2.582093024172e-16
2.2155958976778e-15
1.5709986969879e-14
9.3751577237067e-14
4.7572464865358e-13
2.078880725662e-12
7.8369609093384e-12
2.5816693207367e-11
7.4667285620552e-11
1.8542602665091e-10
4.5309758008217e-10
1.4814518706266e-09
7.6229021831858e-09
4.5601778758025e-08
1.8384472973084e-07
3.9904235063887e-07
7.1912770271582e-07
1.9802099544832e-06
1.1959115862055e-05
9.7081515751762e-05
0.00087593799324708
0.0060636370134323
0.029334086446789
0.034329210617855
0.026672284224577
0.012291449708376
0.0024046288103502
0.00010915174197079
4.5145964278871e-06
1.0310870439561e-06
2.102318113316e-07
3.9441417103765e-08
7.4160944084883e-09
1.4131455222399e-09
2.8153892405503e-10
6.9390343732684e-11
2.7771853033222e-11
2.7695024564496e-11
2.6438565058779e-11
2.0588634047579e-11
1.3691519269256e-11
8.0999032178798e-12
4.2203319148752e-12
1.9257896657211e-12
7.7685900928493e-13
2.8377004054254e-13
9.6735359221323e-14
3.15780782282e-14
1.0030349416285e-14
3.1229836583964e-15
9.5557443917756e-16
2.8762758059828e-16
8.524348480951e-17
2.4902554792979e-17
7.1795178711249e-18
2.0449906258418e-18
5.7602643182954e-19
1.6058269681339e-19
4.4336761657567e-20
1.2131268741754e-20
3.2912818405279e-21
8.8584119647289e-22
2.3663175501775e-22
6.2761413002604e-23
1.6533898313616e-23
4.3277995466632e-24
1.1259072578723e-24
2.9120928864265e-25
7.4901222529543e-26
1.9162805555995e-26
4.8776829780159e-27
1.2355014471962e-27
3.1148194903704e-28
7.8173861615298e-29
1.9534546634562e-29
4.8610220935944e-30
1.2047571496778e-30
2.9742699968761e-31
7.3152299267625e-32
1.7926552402589e-32
4.3776219721968e-33
1.0653716449543e-33
2.5842321615772e-34
6.2484671906428e-35
1.5061393350436e-35
3.6198115813896e-36
8.6658880236325e-37
2.0921685654527e-37
4.4423040087663e-38
1.8869503032611e-38
0
0
0
0
9.1354262551979e-55
5.599640493926e-23
3.4335174122361e-21
1.0205774453028e-19
1.961032106443e-18
2.7417696665093e-17
2.9650861458635e-16
2.5754882747259e-15
1.844650342903e-14
1.1061573772152e-13
5.6245560991797e-13
2.4413425397089e-12
9.103211647267e-12
2.9414665474407e-11
8.3027563994145e-11
2.2215827505147e-10
6.4534444680619e-10
2.6766765094308e-09
1.5774476717515e-08
1.0164255097708e-07
6.2277870733708e-07
2.8307821047826e-06
7.3202620140404e-06
1.5846030235763e-05
4.6272547416939e-05
0.00021645266022782
0.0013887436291006
0.0095936715203079
0.063185170275081
0.29640007964191
0.44633152260923
0.278933556456
0.06113302968278
0.0027346239072838
0.00012576137807729
2.696957757425e-05
5.2673448320853e-06
9.886481212962e-07
1.8558558715398e-07
3.4869488052048e-08
6.5771172541249e-09
1.2628964461418e-09
2.6227715352531e-10
7.2034719451152e-11
5.4321859896662e-11
4.9573035185404e-11
3.9207296850212e-11
2.5364464295325e-11
1.4299680720217e-11
7.1192530533171e-12
3.1342096980852e-12
1.2377892113952e-12
4.4860645301198e-13
1.5312561134053e-13
5.0280898685272e-14
1.608532309687e-14
5.0419705563086e-15
1.5519856984436e-15
4.6971738274365e-16
1.3995044807515e-16
4.1101366107562e-17
1.1912777774271e-17
3.4112454112372e-18
9.6595598209014e-19
2.7070200968106e-19
7.5130674549286e-20
2.0663424460428e-20
5.6348921756714e-21
1.5243408599385e-21
4.0924718207201e-22
1.0908682048223e-22
2.8880317102887e-23
7.5966314916411e-24
1.9859294775008e-24
5.16123663201e-25
1.3338436311123e-25
3.4286471447467e-26
8.7680962902673e-27
2.231225964934e-27
5.6509626509878e-28
1.4246929627834e-28
3.576138513332e-29
8.9386354343684e-30
2.2251401438549e-30
5.5173980025612e-31
1.3628876725397e-31
3.3542031708387e-32
8.2257207880726e-33
2.0103089419882e-33
4.8966896171118e-34
1.1888688353696e-34
2.8776496338161e-35
6.937469634097e-36
1.6861994045935e-36
3.6081407303118e-37
1.5407964386722e-37
0
0
0
1.8225100230718e-54
2.3001698249695e-54
5.268711582344e-23
3.2606552177048e-21
9.7695650072254e-20
1.8902122367889e-18
2.6581797995121e-17
2.8892350714146e-16
2.5205791716138e-15
1.811684032455e-14
1.089359814701e-13
5.5500328316273e-13
2.4099282287128e-12
8.9816828870833e-12
2.8877074512011e-11
8.1197454861195e-11
2.1332173376102e-10
6.7198161219993e-10
3.6823564428649e-09
2.7151279743583e-08
2.0320705763018e-07
1.3785878592937e-06
8.3150353333305e-06
4.0990074809263e-05