/*--------------------------------*- C++ -*----------------------------------*\
  =========                 |
  \\      /  F ield         | OpenFOAM: The Open Source CFD Toolbox
   \\    /   O peration     | Website:  https://openfoam.org
    \\  /    A nd           | Version:  7
     \\/     M anipulation  |
\*---------------------------------------------------------------------------*/
FoamFile
{
    version     2.0;
    format      ascii;
    class       volScalarField;
    location    "3.5";
    object      alpha.water;
}
// * * * * * * * * * * * * * * * * * * * * * * * * * * * * * * * * * * * * * //

dimensions      [0 0 0 0 0 0 0];

internalField   nonuniform List<scalar> 
6000
(
0
0
0
0
0
0
0
0
0
0
0
0
0
0
0
0
0
0
0
0
0
0
0
0
0
0
0
0
0
0
0
0
0
0
0
0
0
0
0
0
0
0
0
0
0
0
0
0
0
0
0
0
0
0
0
0
0
0
0
0
0
0
0
0
0
0
0
0
0
0
0
0
0
0
0
0
0
0
0
0
0
0
0
0
0
0
0
0
0
0
0
0
0
0
0
0
0
0
0
0
0
0
0
0
0
0
0
0
0
0
0
0
0
0
0
0
0
0
0
0
0
0
0
0
0
0
0
0
0
0
0
0
0
0
0
0
0
0
0
0
0
0
0
0
0
0
0
0
0
0
0
0
0
0
0
0
0
0
0
0
0
0
0
0
0
0
0
0
0
0
0
0
0
0
0
0
0
0
0
0
0
0
0
0
0
0
0
0
0
0
0
0
0
0
0
0
0
0
0
0
0
0
0
0
0
0
0
0
0
0
0
0
0
0
0
0
0
0
0
0
0
0
0
0
0
0
0
0
0
0
0
0
0
0
0
0
0
0
0
0
0
0
0
0
0
0
0
0
0
0
0
0
0
0
0
0
0
0
0
0
0
0
0
0
0
0
0
0
0
0
0
0
0
0
0
0
0
0
0
0
0
0
0
0
0
0
0
0
0
0
0
0
0
0
0
0
0
0
0
0
0
0
0
0
0
0
0
0
0
0
0
0
0
0
0
0
0
0
0
0
0
0
0
0
0
0
0
0
0
0
0
0
0
0
0
0
0
0
0
0
0
0
0
0
0
0
0
0
0
0
0
0
0
0
0
0
0
0
0
0
0
0
0
0
0
0
0
0
0
0
0
0
0
0
0
0
0
0
0
0
0
0
0
0
0
0
0
0
0
0
0
0
0
0
0
0
0
0
0
0
0
0
0
0
0
0
0
0
0
3.1059672851472e-83
3.4927296076969e-81
1.9539574709138e-79
7.2595880503009e-78
2.0161769977899e-76
4.4621069069118e-75
8.2031714499492e-74
1.2878309993251e-72
1.7627377759381e-71
2.1368782366001e-70
2.3228012540037e-69
2.2868786863752e-68
2.0562093031858e-67
1.700226775006e-66
1.3005806590253e-65
9.2507671295459e-65
6.1453032121998e-64
3.8276846475652e-63
2.2431269463227e-62
1.2406055748979e-61
6.4933265522726e-61
3.2243438968763e-60
1.5224151096443e-59
6.8491126855352e-59
2.9414467619946e-58
1.2079805202022e-57
4.7513816228475e-57
1.7925767811344e-56
6.4956463563931e-56
2.2636075518151e-55
7.5949415396464e-55
2.4562244751919e-54
7.6643823482499e-54
2.3097720432939e-53
6.7287740639887e-53
1.8964723524826e-52
5.1754532565878e-52
1.3685783006549e-51
3.5093013908665e-51
8.731626216145e-51
2.1094603614383e-50
4.9512349458438e-50
1.1297255117673e-49
2.5071959695691e-49
5.4148592054096e-49
1.1386406514198e-48
2.3323507203445e-48
4.6559257932606e-48
9.0617627146616e-48
1.7202611705386e-47
3.1865778534623e-47
5.7619452935729e-47
1.0173894819327e-46
1.754816474116e-46
2.9576674412178e-46
4.8728261755059e-46
7.8498622361423e-46
1.2368674484654e-45
1.906732520795e-45
2.8766216996623e-45
4.2483343084666e-45
6.1434136294299e-45
8.7009057234875e-45
1.2072221492309e-44
1.6412650671199e-44
2.186938586418e-44
2.8566359652416e-44
3.6586817134303e-44
4.5955101333751e-44
5.6619637375594e-44
6.8439532567853e-44
8.1177050681215e-44
9.4498029217926e-44
1.0798167371271e-43
1.211399445161e-43
1.3344574431424e-43
1.4436762006637e-43
1.5340812213864e-43
1.6014150960158e-43
1.6424732268748e-43
1.6553555107225e-43
1.6396109362849e-43
1.5962587660828e-43
1.5276828281893e-43
1.4374189866447e-43
1.3298576922097e-43
1.209896828524e-43
1.0825831656493e-43
9.5277579977603e-44
8.2486371360684e-44
3.451323837094e-43
0
0
0
0
0
0
0
-2.8714139722563e-73
-3.085918731627e-71
-1.6513202141726e-69
-5.8660833847e-68
-1.5561750586519e-66
-3.288201479466e-65
-5.7642316860024e-64
-8.621897183283e-63
-1.1231928762401e-61
-1.2944569039171e-60
-1.3361174456108e-59
-1.2474732419438e-58
-1.0621492732493e-57
-8.3034765722441e-57
-5.9944355908798e-56
-4.0158470045385e-55
-2.5071060802976e-54
-1.4638956371512e-53
-8.0195540396458e-53
-4.133009406934e-52
-2.0084610997808e-51
-9.2212400174561e-51
-4.0062711665472e-50
-1.6491435685973e-49
-6.437537529064e-49
-2.3840211918352e-48
-8.3749406644278e-48
-2.7885531408905e-47
-8.7843384962837e-47
-2.6092194343175e-46
-7.2645302893728e-46
-1.8757284740119e-45
-4.3999120410526e-45
-8.9531749684002e-45
-1.3741278917203e-44
-4.5083973917337e-45
7.9592617851185e-44
4.4963031344335e-43
1.7565497706194e-42
5.8489422794782e-42
1.7646513757675e-41
4.9544347668438e-41
1.3129887376925e-40
3.3127765332584e-40
8.0029205307563e-40
1.8584973129222e-39
4.161162035729e-39
9.0031660020029e-39
1.8857841180163e-38
3.8295754280827e-38
7.5494070277834e-38
1.4462446791283e-37
2.6948842447367e-37
4.8883576264443e-37
8.6382808289917e-37
1.4880553540058e-36
2.5003370056413e-36
4.1001949562097e-36
6.5653454907881e-36
1.0269820429264e-35
1.5700443890945e-35
2.3468468496844e-35
3.4312387677073e-35
4.9087514013027e-35
6.8738091481144e-35
9.4248704215464e-35
1.2657367299878e-34
1.6654595330203e-34
2.1477052541989e-34
2.7151095086782e-34
3.3658104621959e-34
4.0925580780609e-34
4.8821617623889e-34
5.715405288224e-34
6.5675183080935e-34
7.4092346871921e-34
8.2083963841788e-34
8.9319878632243e-34
9.5484216633863e-34
1.002985170904e-33
1.0354275321156e-33
1.0507201300038e-33
1.0482708217454e-33
1.0283787442178e-33
9.9219488612612e-34
9.4161513058277e-34
8.7911922703627e-34
8.0757429918288e-34
7.3002396149861e-34
6.4948378698215e-34
5.6876106152545e-34
4.9031212943312e-34
2.0394194519925e-33
0
0
0
0
0
0
-1.2737820289521e-71
-1.4096796711314e-69
-7.7676790503592e-68
-2.8414757211416e-66
-7.7629687936231e-65
-1.689537234386e-63
-3.051320488034e-62
-4.7034551264769e-61
-6.3168980235437e-60
-7.5089757468392e-59
-7.9989785643211e-58
-7.7129628218981e-57
-6.7878940641693e-56
-5.4902428183111e-55
-4.1054068908683e-54
-2.8525772987089e-53
-1.849930701924e-52
-1.1240732610616e-51
-6.4216025109062e-51
-3.4596016319787e-50
-1.7624935280949e-49
-8.5116419782612e-49
-3.9052258616034e-48
-1.7056852670721e-47
-7.1050288077153e-47
-2.8272989432974e-46
-1.0764141478099e-45
-3.9264146392508e-45
-1.3739760755283e-44
-4.6178506777007e-44
-1.4922712975343e-43
-4.6412335672656e-43
-1.3905636397195e-42
-4.0167941414683e-42
-1.1195041318553e-41
-3.0124708982514e-41
-7.8312711402677e-41
-1.9678054535103e-40
-4.7815258603081e-40
-1.1239386279188e-39
-2.5563917671049e-39
-5.6271989762742e-39
-1.1988231852208e-38
-2.4715506252758e-38
-4.9295640909852e-38
-9.5069559488887e-38
-1.7713277579691e-37
-3.1843338522893e-37
-5.5126322917896e-37
-9.1633578410971e-37
-1.4559876394707e-36
-2.1955416981012e-36
-3.1034300605973e-36
-4.0163966445396e-36
-4.5114343933927e-36
-3.701998946753e-36
6.6003041143259e-38
9.6408683675067e-36
2.9628233404236e-35
6.7087268302957e-35
1.3232927377011e-34
2.397513205853e-34
4.0859450940084e-34
6.6347324700748e-34
1.0344878720208e-33
1.5567192380797e-33
2.26892170459e-33
3.2112888843523e-33
4.4222671836401e-33
5.9345300558833e-33
7.7703858221702e-33
9.9370499395783e-33
1.2422339081336e-32
1.5191409201669e-32
1.8185138694681e-32
2.1320638819436e-32
2.4494161489081e-32
2.7586392238913e-32
3.0469802436583e-32
3.301743804732e-32
3.5112292010988e-32
3.6656284502163e-32
3.7577884222099e-32
3.7837546708261e-32
3.7430402067092e-32
3.638595523961e-32
3.4764916096139e-32
3.2653601458294e-32
3.015660103824e-32
2.7388543544733e-32
2.4465826057561e-32
2.1499086675027e-32
1.8587030838512e-32
7.7598710650707e-32
0
0
0
0
0
4.2287258204274e-73
-6.5054811398183e-70
-7.3883778927281e-68
-4.0812119004819e-66
-1.4884037547924e-64
-4.0458115042837e-63
-8.7531810675004e-62
-1.5708572630803e-60
-2.4057573163556e-59
-3.2100934549813e-58
-3.791415823945e-57
-4.0134005719384e-56
-3.8461149952744e-55
-3.3646218626804e-54
-2.705695757325e-53
-2.0119783619838e-52
-1.3905428958755e-51
-8.9719910035016e-51
-5.4253434959116e-50
-3.0852806795702e-49
-1.6550926131609e-48
-8.3985146105751e-48
-4.0411878228305e-47
-1.8480496127301e-46
-8.0482091438754e-46
-3.3440396534416e-45
-1.3279063306104e-44
-5.047360151616e-44
-1.8390148176789e-43
-6.4313982134747e-43
-2.1615071874537e-42
-6.9892694578263e-42
-2.1766458543638e-41
-6.5350532240931e-41
-1.8932603156262e-40
-5.2970991028346e-40
-1.4324295310579e-39
-3.7465572839011e-39
-9.4843806816104e-39
-2.325276700695e-38
-5.5243314501332e-38
-1.272488531022e-37
-2.8431920540918e-37
-6.164887432591e-37
-1.2977112717366e-36
-2.6528352391868e-36
-5.2679736560401e-36
-1.0164226090763e-35
-1.9057689541784e-35
-3.4726949656502e-35
-6.1497942073192e-35
-1.0582865875095e-34
-1.7692503548137e-34
-2.8723751442158e-34
-4.5257180931632e-34
-6.9140154876059e-34
-1.0228113020386e-33
-1.462358888813e-33
-2.0150764599319e-33
-2.6648956151815e-33
-3.3600521873571e-33
-3.994557786996e-33
-4.3866383998129e-33
-4.256095538325e-33
-3.2037235746235e-33
-6.9701421569628e-34
3.9328765816944e-33
1.1477831954143e-32
2.2818902978085e-32
3.8869503615903e-32
6.049622264576e-32
8.8421468507714e-32
1.2311607971618e-31
1.6469352253259e-31
2.1281961565754e-31
2.6665221211684e-31
3.2482351914646e-31
3.8547370720613e-31
4.4633854091983e-31
5.048867526471e-31
5.5849585061887e-31
6.0464917459278e-31
6.4113331372229e-31
6.6621417181543e-31
6.7877220703806e-31
6.7838235893078e-31
6.6533111077531e-31
6.4057091379832e-31
6.0561961622944e-31
5.6241851225514e-31
5.131663779393e-31
4.601480367334e-31
4.0557468175935e-31
3.5144984137981e-31
1.4678189010273e-30
0
0
0
0
0
2.3423014231476e-71
-1.6437406200639e-68
-1.9321477930182e-66
-1.0746741192792e-64
-3.9217287317251e-63
-1.0641297647813e-61
-2.2955915998806e-60
-4.1052738571319e-59
-6.2630293737645e-58
-8.3232125014251e-57
-9.7896395796457e-56
-1.0319184783074e-54
-9.8472475347481e-54
-8.5781258672962e-53
-6.8692807259575e-52
-5.0868758843559e-51
-3.5013267099573e-50
-2.2500232881877e-49
-1.3552174299349e-48
-7.677102385665e-48
-4.1028607208119e-47
-2.074307569376e-46
-9.9456634839171e-46
-4.5325628989961e-45
-1.9673884744111e-44
-8.1485824414122e-44
-3.2259766011839e-43
-1.222669585686e-42
-4.4427713475623e-42
-1.5498024710169e-41
-5.1965377699532e-41
-1.6767427498236e-40
-5.21191967271e-40
-1.5622136704236e-39
-4.5195795549614e-39
-1.2631276538767e-38
-3.4130301563744e-38
-8.9228968893675e-38
-2.2586677177806e-37
-5.5394592456749e-37
-1.3171034447431e-36
-3.0378116115428e-36
-6.8002353202935e-36
-1.4781762988123e-35
-3.1215367734731e-35
-6.4067124182988e-35
-1.2784832543804e-34
-2.4814183151725e-34
-4.6858156658755e-34
-8.6112867600002e-34
-1.5404472932354e-33
-2.6828665214131e-33
-4.5496604939418e-33
-7.5130176383247e-33
-1.2080982193998e-32
-1.8914836397183e-32
-2.8829064773202e-32
-4.2760715890326e-32
-6.1692509918513e-32
-8.6513600997551e-32
-1.178048185051e-31
-1.5554267855362e-31
-1.9872914283474e-31
-2.4497169267741e-31
-2.9005911038781e-31
-3.2759922772598e-31
-3.4880130051937e-31
-3.424923983482e-31
-2.9544941815185e-31
-1.9310286357311e-31
-2.062514039007e-32
2.3564160772111e-31
5.8652758545188e-31
1.0383172974738e-30
1.5911855683289e-30
2.2380186369985e-30
2.9638330476816e-30
3.7459498408984e-30
4.5549944921288e-30
5.3566858904539e-30
6.1142669880232e-30
6.791334017498e-30
7.3547570628704e-30
7.7773638680405e-30
8.0400851888838e-30
8.1333295375232e-30
8.0574561996487e-30
7.8223312327798e-30
7.4460633145144e-30
6.953108048147e-30
6.3719884980781e-30
5.7329005492085e-30
5.0654551581937e-30
4.3967625148868e-30
1.8314791745623e-29
0
0
0
0
4.1175368147445e-83
6.4698440240076e-70
-2.735250581007e-67
-3.3513174143294e-65
-1.8807003403347e-63
-6.8759938863571e-62
-1.8643190095784e-60
-4.0136465348848e-59
-7.1582223592508e-58
-1.088648678238e-56
-1.4418607235057e-55
-1.6898840872875e-54
-1.774793672374e-53
-1.6873341996808e-52
-1.4643534956788e-51
-1.16821892833e-50
-8.6183142219028e-50
-5.9097058009325e-49
-3.7834689871253e-48
-2.2703527512859e-47
-1.281377225021e-46
-6.8230470367341e-46
-3.437126765803e-45
-1.6421316157895e-44
-7.4574932654645e-44
-3.2258115850237e-43
-1.3315509866088e-42
-5.2540340379799e-42
-1.9848510187003e-41
-7.1894117845581e-41
-2.5001852587375e-40
-8.3580468892996e-40
-2.6890151145652e-39
-8.3349857660371e-39
-2.4915837823618e-38
-7.189724102055e-38
-2.0044526307747e-37
-5.4035942590445e-37
-1.4096365963044e-36
-3.5610860874504e-36
-8.7177149072634e-36
-2.0693960086929e-35
-4.7661103278848e-35
-1.0656306574387e-34
-2.3141877846106e-34
-4.8837347067753e-34
-1.0019937861707e-33
-1.9994997039288e-33
-3.8823167794749e-33
-7.3371933610269e-33
-1.3501447067209e-32
-2.4197447486773e-32
-4.2248384781258e-32
-7.1878397693952e-32
-1.1918277006209e-31
-1.9262620944079e-31
-3.0348879483661e-31
-4.6613240594151e-31
-6.9791167450994e-31
-1.0185137329448e-30
-1.4484955751237e-30
-2.0068143953908e-30
-2.7072312869286e-30
-3.5536221822717e-30
-4.5344496733456e-30
-5.6169158993725e-30
-6.7415911190923e-30
-7.8185387686167e-30
-8.7260702220723e-30
-9.3131992136421e-30
-9.4065849258908e-30
-8.8222479013521e-30
-7.3816549554791e-30
-4.9309879968713e-30
-1.3616664405021e-30
3.3703685947842e-30
9.2293413771206e-30
1.6090860398195e-29
2.3741618362473e-29
3.1888531372743e-29
4.0177040721224e-29
4.8217016986481e-29
5.5613588813945e-29
6.1999462183546e-29
6.7065034139247e-29
7.0582884384736e-29
7.2423999066887e-29
7.2564208695669e-29
7.1080615022913e-29
6.8139030158744e-29
6.3974467169689e-29
5.88673709376e-29
5.3118500443449e-29
4.7025184371997e-29
4.0861150846674e-29
1.6934361555546e-28
0
0
0
0
2.338885814676e-81
1.1881977966326e-68
-3.3650572555076e-66
-4.3333303243432e-64
-2.4576690433153e-62
-9.0096904075437e-61
-2.442324464768e-59
-5.249657869841e-58
-9.3406363901707e-57
-1.4165783840974e-55
-1.8703879075363e-54
-2.1849289478646e-53
-2.2868819662078e-52
-2.1665755033014e-51
-1.8735671887755e-50
-1.4892955649279e-49
-1.0947162419735e-48
-7.4793168019738e-48
-4.7709096888463e-47
-2.8524661249804e-46
-1.6040724327931e-45
-8.5104183312631e-45
-4.2717041914956e-44
-2.0335539825261e-43
-9.2022314817889e-43
-3.9664639061249e-42
-1.6315463567006e-41
-6.4154282505306e-41
-2.4152775313212e-40
-8.7187700497231e-40
-3.0218603799447e-39
-1.0068533873816e-38
-3.2287480957557e-38
-9.9757833296594e-38
-2.9726392801938e-37
-8.5512306181172e-37
-2.3767796019711e-36
-6.3882477674623e-36
-1.6616657116313e-35
-4.1859174095548e-35
-1.021926639792e-34
-2.4194132521719e-34
-5.5580722777401e-34
-1.2396781536135e-33
-2.6859397534233e-33
-5.6559283554103e-33
-1.1580731291307e-32
-2.3066595704375e-32
-4.4712052996778e-32
-8.4377148471117e-32
-1.550733589538e-31
-2.7765278551588e-31
-4.8444768766237e-31
-8.2392179451606e-31
-1.3662168979038e-30
-2.2091912745179e-30
-3.4841457506792e-30
-5.359942649229e-30
-8.0437070276507e-30
-1.1775870431229e-29
-1.6817130000702e-29
-2.3425129002126e-29
-3.1819483969576e-29
-4.213528851063e-29
-5.4367391339563e-29
-6.8310382337458e-29
-8.3501940674637e-29
-9.9179452740266e-29
-1.1426095745349e-28
-1.2736092696561e-28
-1.3684874571996e-28
-1.4095296471605e-28
-1.3790788687165e-28
-1.2613165388135e-28
-1.0441798931311e-28
-7.2118497063334e-29
-2.9290182588642e-29
2.3215501627294e-29
8.3740102287597e-29
1.4989097636046e-28
2.186970449904e-28
2.8683342970656e-28
3.5089089766921e-28
4.0765939347538e-28
4.5439280432575e-28
4.8902483498179e-28
5.1031292990889e-28
5.1789729709197e-28
5.1227351292549e-28
4.9468805349448e-28
4.6697477330955e-28
4.3135572084232e-28
3.9023128820913e-28
3.4598275687684e-28
3.0080558491259e-28
1.237894724677e-27
0
0
0
0
6.5847507127274e-80
1.6321745456013e-67
-3.2551102681941e-65
-4.4525495422927e-63
-2.5566341120974e-61
-9.4045979017744e-60
-2.5499298066335e-58
-5.4738908136375e-57
-9.7190522810742e-56
-1.470127103235e-54
-1.9354162616395e-53
-2.2538006541539e-52
-2.3512187942134e-51
-2.2199784308635e-50
-1.9130985631028e-49
-1.5153706462514e-48
-1.1099232201641e-47
-7.5560573479749e-47
-4.8025160993485e-46
-2.8609995872122e-45
-1.6030557519709e-44
-8.4742732795657e-44
-4.2381927079746e-43
-2.0103215278462e-42
-9.0643491707909e-42
-3.8930044901226e-41
-1.5955991895227e-40
-6.2517099825566e-40
-2.3452841132013e-39
-8.4361835248407e-39
-2.9136363439898e-38
-9.6739936267927e-38
-3.0914448135766e-37
-9.5185773004114e-37
-2.8266738287053e-36
-8.1036789437206e-36
-2.2447879805771e-35
-6.0133267738446e-35
-1.5589725033866e-34
-3.9143868953491e-34
-9.5255332209701e-34
-2.2479991689825e-33
-5.1481231535082e-33
-1.1447136007067e-32
-2.4727177046735e-32
-5.1916194435333e-32
-1.0599599048669e-31
-2.1053742453953e-31
-4.0701013615727e-31
-7.6610453936139e-31
-1.4045488483592e-30
-2.508991095167e-30
-4.3682814008116e-30
-7.4147270905532e-30
-1.227338663212e-29
-1.9816052218549e-29
-3.121321752569e-29
-4.7973250629896e-29
-7.1953741683854e-29
-1.0532650259528e-28
-1.5047623226648e-28
-2.0981486451608e-28
-2.8550038306343e-28
-3.7906115255118e-28
-4.9094429501502e-28
-6.2002768097742e-28
-7.6315655026549e-28
-9.1478322318089e-28
-1.0667968149787e-27
-1.2086247863646e-27
-1.3276666967488e-27
-1.410082646451e-27
-1.4419081022204e-27
-1.4104101189673e-27
-1.3055470545025e-27
-1.1213553209604e-27
-8.5707186946492e-28
-5.178158318607e-28
-1.1469775020508e-28
3.3570502625143e-28
8.1248329731035e-28
1.2920320294683e-27
1.7500060353874e-27
2.1633679816322e-27
2.5122894334786e-27
2.7816892748958e-27
2.9622482783004e-27
3.0508138110496e-27
3.0501915385955e-27
2.9683979821483e-27
2.8175075030538e-27
2.612262331315e-27
2.3686221770221e-27
2.1024130790161e-27
1.8281994901473e-27
7.4588997058929e-27
0
0
0
0
1.2305734548192e-78
1.7887173453433e-66
-2.5680662299709e-64
-3.784710248466e-62
-2.2045086634786e-60
-8.1431060752415e-59
-2.2092510778256e-57
-4.7376746539403e-56
-8.3956953346409e-55
-1.2668281512843e-53
-1.6630944948671e-52
-1.930794936414e-51
-2.007800988379e-50
-1.8894361899632e-49
-1.622703843154e-48
-1.2808890145338e-47
-9.3487933174593e-47
-6.3417968373877e-46
-4.0163239713239e-45
-2.3840308806302e-44
-1.3309769064695e-43
-7.0104773840802e-43
-3.4933804223572e-42
-1.6510061295353e-41
-7.4171416948727e-41
-3.1739578680268e-40
-1.2961535796531e-39
-5.0599761664083e-39
-1.8913117137923e-38
-6.7784916042101e-38
-2.332617505368e-37
-7.7167996633049e-37
-2.4570762840365e-36
-7.5380282367478e-36
-2.2304541172166e-35
-6.3714091178034e-35
-1.7586062871802e-34
-4.6941085709261e-34
-1.2126279305155e-33
-3.0339628973694e-33
-7.3570013140891e-33
-1.7301408909022e-32
-3.9483725679355e-32
-8.7490625324177e-32
-1.8834237416078e-31
-3.9409462747265e-31
-8.0191600333655e-31
-1.5875622132714e-30
-3.0590874190822e-30
-5.739665012504e-30
-1.0490054973287e-29
-1.8681748261283e-29
-3.2429986356777e-29
-5.4890274958103e-29
-9.0611235756615e-29
-1.4591962196009e-28
-2.2929002370396e-28
-3.5162387326178e-28
-5.263337933402e-28
-7.6910662722848e-28
-1.0972103089752e-27
-1.5282256251428e-27
-2.0781321566012e-27
-2.7587624219359e-27
-3.5747565764061e-27
-4.5202898256035e-27
-5.5759841595922e-27
-6.7065255667365e-27
-7.859555064303e-27
-8.9663582903143e-27
-9.9447277434666e-27
-1.0704116881381e-26
-1.1152872086331e-26
-1.1206964941428e-26
-1.0799316743985e-26
-9.8885770473975e-27
-8.4661452212776e-27
-6.5603413179446e-27
-4.2369387117817e-27
-1.5957278787899e-27
1.2366815893872e-27
4.1170840856049e-27
6.8977588254247e-27
9.4389832061814e-27
1.1620511066508e-26
1.3350724239503e-26
1.4572524071768e-26
1.5265503431846e-26
1.5444446353097e-26
1.5154659679379e-26
1.4464982612336e-26
1.345950608219e-26
1.2229055259194e-26
1.0863364567419e-26
9.4446454700391e-27
3.8150118857814e-26
0
0
0
0
1.7179247606773e-77
1.6290243958897e-65
-1.688764870621e-63
-2.7354102149814e-61
-1.620070118068e-59
-6.0140938689109e-58
-1.6333119776216e-56
-3.4998514672796e-55
-6.1912554092388e-54
-9.3201810123549e-53
-1.2202402238777e-51
-1.4124595383196e-50
-1.4641794344679e-49
-1.3733565742096e-48
-1.1755090847073e-47
-9.2470303747538e-47
-6.7255247281249e-46
-4.5461520371608e-45
-2.8688418258626e-44
-1.6967749645977e-43
-9.4386087449951e-43
-4.9533898698537e-42
-2.4593026679011e-41
-1.1580324636119e-40
-5.1833453650483e-40
-2.2098990700225e-39
-8.9912923178129e-39
-3.4970796547698e-38
-1.3022935233844e-37
-4.6501300096318e-37
-1.594261570685e-36
-5.2545462959838e-36
-1.6668507288994e-35
-5.0946484922095e-35
-1.5018505204087e-34
-4.2741000696673e-34
-1.1753108538327e-33
-3.1254440932001e-33
-8.0437889982619e-33
-2.0050187938827e-32
-4.8437904159426e-32
-1.1348653593391e-31
-2.5802530602606e-31
-5.696275869807e-31
-1.2217098939419e-30
-2.5469344922513e-30
-5.1635885110684e-30
-1.0185189475019e-29
-1.9555012982846e-29
-3.6559083025514e-29
-6.6580410193649e-29
-1.1815898580862e-28
-2.0440934069224e-28
-3.4481206585583e-28
-5.6732941613813e-28
-9.1069258486471e-28
-1.4265703918863e-27
-2.1811671773927e-27
-3.2556362817878e-27
-4.7445735816394e-27
-6.751823442618e-27
-9.3829407967108e-27
-1.2733951896598e-26
-1.6876560808543e-26
-2.1840635114049e-26
-2.7595596034274e-26
-3.403310544275e-26
-4.0954015774815e-26
-4.8062749095797e-26
-5.4971949260961e-26
-6.1219331421035e-26
-6.6297172428014e-26
-6.9693008528439e-26
-7.0938114718548e-26
-6.9658589944478e-26
-6.5622728311922e-26
-5.8778111362461e-26
-4.927265868521e-26
-3.7455680556699e-26
-2.3857544806014e-26
-9.1494966053327e-27
5.9120362285464e-27
2.0550138302183e-26
3.4033390568202e-26
4.573540802976e-26
5.5181319686372e-26
6.2076618909621e-26
6.6316387683264e-26
6.7975560509834e-26
6.7283216993747e-26
6.4585549413512e-26
6.0302965377222e-26
5.4886741770489e-26
4.8779874490043e-26
4.2385498183149e-26
1.6928643640158e-25
0
0
0
0
1.9115889015562e-76
1.2680679079628e-64
-9.3520946860762e-63
-1.7146277326629e-60
-1.0354574709432e-58
-3.8665591903019e-57
-1.0516205293795e-55
-2.2522256788818e-54
-3.9778860215732e-53
-5.9749549295726e-52
-7.8021802954388e-51
-9.0050788726529e-50
-9.3059837250474e-49
-8.7005410340917e-48
-7.4222893341035e-47
-5.8187264344845e-46
-4.2173359837864e-45
-2.840669178778e-44
-1.7862017798734e-43
-1.0526429423102e-42
-5.8342609969367e-42
-3.0506427409564e-41
-1.5090481843294e-40
-7.0795640008944e-40
-3.1570664886262e-39
-1.3409962523949e-38
-5.4356684588539e-38
-2.1062337897606e-37
-7.8140262049419e-37
-2.7796550308843e-36
-9.4938032576611e-36
-3.1172084369779e-35
-9.8508232210371e-35
-2.9993736303939e-34
-8.8080351500736e-34
-2.4970579277639e-33
-6.8401259075667e-33
-1.8119515108397e-32
-4.6453172611711e-32
-1.1534261896292e-31
-2.7756877111858e-31
-6.478005493885e-31
-1.4671329497792e-30
-3.2263215394285e-30
-6.8927792122393e-30
-1.4313799291466e-29
-2.8906937276362e-29
-5.679847616875e-29
-1.0862959944074e-28
-2.0230891732756e-28
-3.6703294788082e-28
-6.4889688445404e-28
-1.1183407183465e-27
-1.8794787824131e-27
-3.0810047970871e-27
-4.9278267011709e-27
-7.6918777478941e-27
-1.1719738149624e-26
-1.7433918498589e-26
-2.5324105157129e-26
-3.5924602123959e-26
-4.9774883446862e-26
-6.7361794212956e-26
-8.9044564105309e-26
-1.1496726615717e-25
-1.4496724342012e-25
-1.784916648565e-25
-2.145369163132e-25
-2.5162612463445e-25
-2.8783808265801e-25
-3.2089591890711e-25
-3.4831632796856e-25
-3.6761095374053e-25
-3.7652203961867e-25
-3.7326647206628e-25
-3.5675755331632e-25
-3.2677353219591e-25
-2.8404663766699e-25
-2.3025569808888e-25
-1.6791806261364e-25
-1.0019043409605e-25
-3.0601022153678e-26
3.7255068341146e-26
1.0002068323604e-25
1.5484613122746e-25
1.9959398887146e-25
2.3295998923371e-25
2.5450302693909e-25
2.6458951902035e-25
2.6426761412271e-25
2.5509365806001e-25
2.3893624618393e-25
2.1778222316826e-25
1.9356486037258e-25
1.6802828432432e-25
6.627018584246e-25
0
0
0
0
1.7660168958728e-75
8.6124021778459e-64
-4.3494083790534e-62
-9.4594751146139e-60
-5.8448627355914e-58
-2.197771251945e-56
-5.9891581132001e-55
-1.2823665901172e-53
-2.2617328689955e-52
-3.3901072840095e-51
-4.4156376553941e-50
-5.0819941969964e-49
-5.2358433800227e-48
-4.8795687768749e-47
-4.1489061055839e-46
-3.2414961199045e-45
-2.341246776086e-44
-1.5714360301208e-43
-9.8458617938471e-43
-5.7814256139726e-42
-3.1926871159226e-41
-1.6632840698658e-40
-8.1973246275193e-40
-3.8314217987245e-39
-1.7022091084806e-38
-7.2031820162096e-38
-2.9087727500466e-37
-1.1228354313894e-36
-4.1498272488893e-36
-1.4705668224673e-35
-5.003408923441e-35
-1.6365030143944e-34
-5.1515989315101e-34
-1.5624713639054e-33
-4.5705242853355e-33
-1.2906684349654e-32
-3.5216240650947e-32
-9.2920641438546e-32
-2.3728039699047e-31
-5.8682895434373e-31
-1.4065730823865e-30
-3.2696262990727e-30
-7.375424116166e-30
-1.6154074533328e-29
-3.4373405098e-29
-7.1094250519277e-29
-1.4299850589906e-28
-2.7984365700004e-28
-5.3306107566474e-28
-9.8877112867862e-28
-1.7866569987583e-27
-3.146098416102e-27
-5.4005530631675e-27
-9.0402029587113e-27
-1.4761191779344e-26
-2.3517288295157e-26
-3.6566609412282e-26
-5.5502460776382e-26
-8.2254042416198e-26
-1.1904065336298e-25
-1.6826323472606e-25
-2.323207156862e-25
-3.1334644188844e-25
-4.1287205964013e-25
-5.3144170190882e-25
-6.68216131532e-25
-8.2062156502923e-25
-9.8410753354075e-25
-1.1520787449211e-24
-1.316054903629e-24
-1.466089113907e-24
-1.5914416210716e-24
-1.6814656338326e-24
-1.7266223269652e-24
-1.71951036169e-24
-1.6557783760504e-24
-1.5347917620995e-24
-1.3599491191565e-24
-1.1385864720478e-24
-8.8146230180263e-25
-6.0187462107105e-25
-3.1451280643423e-25
-3.4182853169774e-26
2.2544078547875e-25
4.5289246946739e-25
6.3970726790377e-25
7.8085775832302e-25
8.7481745343358e-25
9.2328194395345e-25
9.3061856646272e-25
9.0314040382525e-25
8.4830875233306e-25
7.73960961139e-25
6.8764129702503e-25
5.9608613677897e-25
2.3186283044575e-24
0
0
0
0
1.393239548222e-74
5.1843520721833e-63
-1.6552885960209e-61
-4.6445484665903e-59
-2.9488901693398e-57
-1.1179477773225e-55
-3.0541897476417e-54
-6.539888104231e-53
-1.1520520224072e-51
-1.7234180315322e-50
-2.2392842100522e-49
-2.5700890904597e-48
-2.6399744032117e-47
-2.4525675429203e-46
-2.078475395449e-45
-1.6184014238594e-44
-1.1648875210554e-43
-7.7911689223339e-43
-4.864146114973e-42
-2.8458776380527e-41
-1.5658501591225e-40
-8.127538770144e-40
-3.9907206673183e-39
-1.8582952976088e-38
-8.2249476159728e-38
-3.4673739182205e-37
-1.3948684330163e-36
-5.363869624182e-36
-1.9747973835517e-35
-6.9710738157294e-35
-2.3626284502886e-34
-7.6975581954829e-34
-2.4136665254417e-33
-7.2918667028669e-33
-2.1245969469584e-32
-5.9758765456633e-32
-1.6240482228381e-31
-4.2680533250344e-31
-1.0855105604032e-30
-2.6738146210562e-30
-6.382970673123e-30
-1.4777226314313e-29
-3.3197841094488e-29
-7.2414760507705e-29
-1.5345615370141e-28
-3.1608801307854e-28
-6.3315854582397e-28
-1.2339573906665e-27
-2.340789972928e-27
-4.3239430794966e-27
-7.7807780392231e-27
-1.3644319525988e-26
-2.3324747738138e-26
-3.8882928038218e-26
-6.322792620989e-26
-1.0032015322889e-25
-1.5534887319869e-25
-2.3483882766231e-25
-3.4662840676156e-25
-4.996549502753e-25
-7.0348580950275e-25
-9.6755085447285e-25
-1.3000657168592e-24
-1.706684841469e-24
-2.1889849852578e-24
-2.7429443444325e-24
-3.3576374542444e-24
-4.014396997945e-24
-4.6866874214133e-24
-5.3408831710903e-24
-5.9380457237397e-24
-6.4366574771209e-24
-6.7961159156958e-24
-6.9806444170286e-24
-6.9631653494629e-24
-6.7286320070766e-24
-6.276344297278e-24
-5.6208809863499e-24
-4.7914553491839e-24
-3.8297142851217e-24
-2.7862177445255e-24
-1.7160184953646e-24
-6.7388066747244e-25
2.9028979751657e-25
1.1352818743808e-24
1.8312889283682e-24
2.3612720900199e-24
2.7209513543536e-24
2.9175757638277e-24
2.9677601217335e-24
2.894754159326e-24
2.7255266532203e-24
2.4880083724681e-24
2.2087587531277e-24
1.9112207873193e-24
7.3241672002046e-24
0
0
0
0
9.5807128830982e-74
2.8004597788776e-62
-4.6946384768009e-61
-2.0465832227044e-58
-1.3425183309182e-56
-5.1389853537773e-55
-1.4083859035851e-53
-3.0169986992746e-52
-5.3093650651111e-51
-7.928104034392e-50
-1.0277077392023e-48
-1.176353261462e-47
-1.2047886844765e-46
-1.1157707543133e-45
-9.4250204978884e-45
-7.3141031189493e-44
-5.246380463059e-43
-3.4966316577874e-42
-2.175209186237e-41
-1.2680528307604e-40
-6.9515322124249e-40
-3.5948714699796e-39
-1.7585557134316e-38
-8.1580782423293e-38
-3.5971911146923e-37
-1.5106991643185e-36
-6.0540754695147e-36
-2.319107555553e-35
-8.50519953392e-35
-2.990696966314e-34
-1.009649467141e-33
-3.2765929804794e-33
-1.0233709718659e-32
-3.0794484551718e-32
-8.9367851019404e-32
-2.5036241458087e-31
-6.7767496968741e-31
-1.773779672223e-30
-4.4930737907227e-30
-1.1022315991771e-29
-2.6205288641653e-29
-6.041935866304e-29
-1.3517699070283e-28
-2.9364497120629e-28
-6.1969111999342e-28
-1.2711232215462e-27
-2.53556171583e-27
-4.9208225508902e-27
-9.2954398571682e-27
-1.7098264022684e-26
-3.0637603907901e-26
-5.3498206602034e-26
-9.1066059637504e-26
-1.5116403104791e-25
-2.4476381025212e-25
-3.8670117295164e-25
-5.9627474181259e-25
-8.975594192878e-25
-1.3192250159625e-24
-1.8936323609948e-24
-2.6549989715349e-24
-3.636497800004e-24
-4.8662827294017e-24
-6.3626191548004e-24
-8.1285183307838e-24
-1.0146496080044e-23
-1.237425395141e-23
-1.4742163747496e-23
-1.715338109128e-23
-1.9487196058324e-23
-2.1605854103359e-23
-2.3364588624712e-23
-2.4624070081637e-23
-2.526398983546e-23
-2.5196157941955e-23
-2.4375383778832e-23
-2.2806570492115e-23
-2.0546882706534e-23
-1.7702483250959e-23
-1.4420077116412e-23
-1.087422403148e-23
-7.2519608764183e-24
-3.7366142219301e-24
-4.9272996793267e-25
2.3461953967395e-24
4.6859738947982e-24
6.4753847849326e-24
7.7052894862544e-24
8.4038309547428e-24
8.6287605679243e-24
8.4581489772222e-24
7.9807449877973e-24
7.2870790711677e-24
6.4621204065232e-24
5.5799533093878e-24
2.1053113868123e-23
0
0
0
0
5.834093166384e-73
1.3711155330301e-61
-5.7068932963697e-61
-8.142284984373e-58
-5.5576254372638e-56
-2.1518314504108e-54
-5.9203295135316e-53
-1.269260448353e-51
-2.2319701756625e-50
-3.3273003791472e-49
-4.3034966562303e-48
-4.9130664668894e-47
-5.0173209182923e-46
-4.6322994593639e-45
-3.9003191078142e-44
-3.0166516443435e-43
-2.1564059289216e-42
-1.4321721354713e-41
-8.8775783135094e-41
-5.156520637278e-40
-2.81648147112e-39
-1.4511095400959e-38
-7.0721085403314e-38
-3.268463486304e-37
-1.4357225685613e-36
-6.0065554012877e-36
-2.3978711245097e-35
-9.1499783549513e-35
-3.3426893619142e-34
-1.1708138044148e-33
-3.9371490226296e-33
-1.272687227582e-32
-3.959246806454e-32
-1.1866569365759e-31
-3.4300375628465e-31
-9.5707199945937e-31
-2.5801648057392e-30
-6.7261844887667e-30
-1.6968688279853e-29
-4.1457740948377e-29
-9.8161709788628e-29
-2.2539375934741e-28
-5.0219600640965e-28
-1.0863999168841e-27
-2.2831316657665e-27