/*--------------------------------*- C++ -*----------------------------------*\
  =========                 |
  \\      /  F ield         | OpenFOAM: The Open Source CFD Toolbox
   \\    /   O peration     | Website:  https://openfoam.org
    \\  /    A nd           | Version:  7
     \\/     M anipulation  |
\*---------------------------------------------------------------------------*/
FoamFile
{
    version     2.0;
    format      ascii;
    class       surfaceScalarField;
    location    "2.7";
    object      alphaPhi0.water;
}
// * * * * * * * * * * * * * * * * * * * * * * * * * * * * * * * * * * * * * //

dimensions      [0 3 -1 0 0 0 0];

internalField   nonuniform List<scalar> 
11840
(
0
0
0
0
0
0
0
0
0
0
0
0
0
0
0
0
0
0
0
0
0
0
0
0
0
0
0
0
0
0
0
0
0
0
0
0
0
0
0
0
0
0
0
0
0
0
0
0
0
0
0
0
0
0
0
0
0
0
0
0
0
0
0
0
0
0
0
0
0
0
0
0
0
0
0
0
0
0
0
0
0
0
0
0
0
0
0
0
0
0
0
0
0
0
0
0
0
0
0
0
0
0
0
0
0
0
0
0
0
0
0
0
0
0
0
0
0
0
0
0
0
0
0
0
0
0
0
0
0
0
0
0
0
0
0
0
0
0
0
0
0
0
0
0
0
0
0
0
0
0
0
0
0
0
0
0
0
0
0
0
0
0
0
0
0
0
0
0
0
0
0
0
0
0
0
0
0
0
0
0
0
0
0
0
0
0
0
0
0
0
0
0
0
0
0
0
0
0
0
0
0
0
0
0
0
0
0
0
0
0
0
0
0
0
0
0
0
0
0
0
0
0
0
0
0
0
0
0
0
0
0
0
0
0
0
0
0
3.0669369423683e-208
-6.2841151681537e-229
5.0172586342287e-208
2.5086293171143e-208
8.1962295358443e-208
4.0981147531246e-208
2.3182509840846e-208
6.4649601269634e-208
4.2150017892448e-209
1.8967508051601e-208
7.9527469981009e-189
0
3.2534898362657e-188
0
5.9154360659378e-189
2.661946229672e-188
1.0755338301705e-189
4.8399022357672e-189
1.9555160548555e-190
8.7998222468497e-190
1.0293501932396e-189
0
4.1677000508148e-189
-1.12576490897e-202
7.5776364560269e-190
3.4099364052121e-189
9.1290468826252e-190
4.5645234413126e-190
1.6195854348515e-189
2.7901104980258e-190
3.9248988044447e-189
0
7.5980645097174e-189
0
1.3814662744941e-189
6.2165982352234e-189
2.5117568627166e-190
1.1302905882224e-189
4.3195170654206e-190
0
5.9960783288685e-190
0
1.0901960597943e-190
4.9058822690742e-190
1.3165543842022e-190
0
2.393735244004e-191
1.0771808598018e-190
1.7179345361481e-191
8.5896726807407e-192
3.1235173384512e-192
1.405582802303e-191
2.9714157794821e-192
4.420837110104e-193
2.9573058967321e-192
0
5.3769198122402e-193
2.419613915508e-192
4.9390050400893e-193
0
8.9800091637988e-194
4.0410041237094e-193
7.6944645332287e-194
0
6.1999725195888e-194
0
1.1272677308343e-194
5.0727047887544e-194
8.5973726615485e-195
0
1.5631586657362e-195
7.0342139958124e-195
2.8421066649754e-196
1.2789479992387e-195
2.0626419182502e-196
0
3.7502580331917e-197
1.687616114932e-196
2.6014889261767e-197
0
4.7299798660414e-198
2.1284909395809e-197
3.1479310705577e-198
0
5.7235110804242e-199
2.5755799773068e-198
2.8856210368634e-199
1.4428105184317e-199
5.2465837768971e-200
2.3609626584562e-199
2.5976991705717e-200
1.2988495852858e-200
1.26383058553e-200
6.3191529276501e-201
2.2979081039212e-201
1.0340513418533e-200
1.1040029013753e-201
5.5200145068763e-202
6.5151818975527e-202
0
3.0327960330679e-202
1.516398016534e-202
1.6981141612776e-202
0
3.0958139051473e-203
1.3884258389968e-202
1.683427933012e-203
0
3.1919605813422e-204
1.3645370310889e-203
1.4266755465391e-204
7.1333777326954e-205
3.4048221466276e-205
1.0899852716152e-204
2.0151693286822e-205
0
1.1603071443062e-205
0
5.2910135194005e-206
2.652118460443e-206
2.8761368675361e-206
0
1.2577936177654e-206
6.3105771314968e-207
6.4756266793187e-207
0
2.7439071773588e-207
1.3719535886794e-207
1.3561324587899e-207
0
6.489397268425e-208
0
2.582314788495e-208
1.2911792628692e-208
1.1742298251507e-208
0
4.5105805917099e-209
2.255290295855e-209
1.9682378182745e-209
0
7.3405995301255e-210
3.6703000538351e-210
2.7052309483025e-210
1.3526154741512e-210
1.1224303305412e-210
0
4.2807506637763e-211
2.1403753318722e-211
1.6666840253394e-211
0
5.7713843004283e-212
2.8856921504073e-212
2.238916592547e-212
0
8.5951055698738e-213
0
2.9152385845456e-213
1.4576192922728e-213
1.0952474147404e-213
0
2.7227589640392e-214
0
0
0
0
0
0
0
0
0
0
0
0
0
0
0
0
0
0
0
0
0
0
0
0
0
0
0
0
0
0
0
0
0
0
0
0
0
0
1.5178292256179e-151
7.5891461280897e-152
8.3268130881353e-148
4.1634065440677e-148
7.569830087037e-148
7.5698300993309e-149
0
8.3899289274172e-140
2.3332616605522e-122
0
2.6103048758694e-122
8.2543046646311e-123
2.9461429776901e-122
0
1.7362572095673e-122
9.3495325527501e-123
6.9854082564554e-124
1.5984630814777e-122
4.6121267787333e-124
2.3732811152091e-124
1.3319523510015e-123
0
1.8487878775526e-123
7.5542549991234e-124
2.4936884573748e-122
1.244421962716e-122
1.4409518302583e-123
2.349593274349e-122
1.0297487255396e-123
4.1120310471868e-124
4.6038179025484e-123
1.3255585907631e-123
3.1557726045834e-122
0
1.4803035434968e-121
0
2.0389517413805e-122
-1.311475277631e-121
1.861405302275e-122
0
8.3738559494401e-122
0
8.3738559494401e-122
0
4.7811877441293e-122
0
4.7808220401738e-122
0
9.4119382272626e-124
4.6867026579012e-122
9.9788809095418e-124
0
9.9788809095418e-124
0
4.2706195897795e-124
0
2.561170006465e-124
0
1.5491663540678e-124
0
8.5664891511337e-125
0
6.8033411901002e-125
0
1.6735303056392e-125
0
7.1605480080739e-126
0
4.6683092236056e-126
0
2.691506207982e-126
0
3.6048728633735e-127
2.3310189216447e-126
2.1885202206547e-127
0
6.8134777117348e-129
2.1203854435373e-127
6.8111364904471e-129
0
1.6534899125027e-130
6.6457874991969e-129
1.6527157317293e-130
0
9.9516331735035e-131
0
3.6782150056062e-132
9.5838116729428e-131
3.3553248602151e-132
0
6.1005906549367e-133
2.7452657947214e-132
8.1069096644851e-134
5.2898996884881e-133
4.8397097126288e-134
0
1.5067516814678e-135
4.689034544482e-134
1.5062116148821e-135
0
2.8263861687389e-137
1.4779477531947e-135
1.9486013258604e-137
0
1.4682878514249e-137
0
2.0943615434277e-138
0
2.0935650409793e-138
0
3.8064818926897e-139
1.7129168517103e-138
1.2993448716707e-140
3.6765474055227e-139
3.4607971403856e-141
0
3.4594588369723e-141
0
1.3666828581006e-142
3.3227905511622e-141
1.2350063965572e-142
0
1.6177075883248e-143
1.0732356377247e-142
9.3541954413587e-144
0
2.2237487937637e-145
9.1318205619823e-144
2.2226570185079e-145
0
1.2027815688928e-145
0
4.7959509259298e-146
0
2.6189230519456e-146
0
6.1724101750634e-148
2.557198950195e-146
6.1687541218011e-148
0
3.2706977454341e-148
0
4.2361731614566e-149
2.8470804292884e-148
2.3865040042101e-149
0
8.2306894708476e-151
1.197018368165e-149
4.9896948444272e-151
0
1.5138903787448e-151
0
5.4911743970633e-152
0
3.2564177593509e-152
0
9.9395730977088e-154
3.1570220283738e-152
7.6022410153215e-154
0
0
0
0
0
0
0
0
0
0
0
0
0
0
0
0
0
0
0
0
0
0
0
0
0
0
0
0
0
0
0
0
0
0
0
0
-1.5745000949337e-89
-7.8725004746687e-90
-2.3797196307785e-88
-1.1898598153893e-88
-2.6288625519264e-87
-1.3144312759632e-87
-1.9742243611524e-86
-9.8711218057622e-87
-1.0148530882589e-85
-5.0742654412947e-86
-4.3062735769717e-85
-2.1531367884858e-85
2.7278870488534e-72
0
1.9726221354698e-73
2.526484746401e-72
1.3235614969638e-73
6.5866097736363e-74
2.3295285021413e-74
1.0870208230133e-73
3.7476171038889e-75
1.9547826235415e-74
4.0124565200478e-76
3.3462132251903e-75
9.0038826831095e-75
1.4149498560667e-74
1.5921253707041e-75
7.3093369713175e-75
2.8947789193815e-76
1.3026474787659e-75
5.2632396055727e-77
2.36845495874e-76
4.7847632835031e-78
4.7847632780648e-77
1.0679813147413e-71
1.5228417204142e-71
3.4525569304868e-63
1.5557538194653e-63
1.7637873705026e-62
1.2446030555722e-62
1.4795931325755e-63
1.6158280572451e-62
2.8044314998178e-64
1.9446922743316e-63
3.7016923269189e-64
3.8893833761e-64
3.6157802316044e-64
6.3161835406786e-64
1.612931759001e-63
8.7949533208109e-64
7.9927234197723e-63
5.6593583419018e-63
3.1621528076946e-62
2.2019461229961e-62
1.6847401351355e-61
1.0296295739273e-61
6.5794202900814e-61
3.3883230922084e-61
3.0164927107212e-60
2.1871328494878e-60
8.5043342421564e-60
6.2755955332118e-60
2.7860139320694e-59
1.8326682651862e-59
8.414722558385e-59
5.6671322838395e-59
2.2651033347418e-58
1.3425593290582e-58
6.3316745355946e-58
4.9371232546296e-58
1.3174525193041e-57
1.0402411799592e-57
3.156507145433e-57
2.2897464143969e-57
6.3094462011792e-57
5.1646464223856e-57
1.2153197986009e-56
9.839567959847e-57
2.8323114969549e-56
2.1137953441238e-56
5.0744459777438e-56
4.2020092829497e-56
9.6082995134337e-56
7.6214927635427e-56
1.3192128939101e-55
1.2562117410154e-55
1.4852417930024e-55
1.4683223878272e-55
1.6077722411262e-55
1.6077450313196e-55
1.5589880621373e-55
1.6589856524791e-55
1.5862154181535e-55
1.58607827609e-55
1.4356877960004e-55
1.5841334791154e-55
1.200567124106e-55
1.3803731800814e-55
9.5771170381373e-56
1.0849187008657e-55
6.0875967035584e-56
8.0668922929947e-56
3.1442527814885e-56
4.5670492280336e-56
9.3083397167152e-57
2.0492358447838e-56
1.4933387137973e-57
5.3087408280582e-57
2.8896590296683e-58
8.4443602692747e-58
4.8588873876899e-59
2.2810874536838e-58
1.2560806590218e-59
3.2161196333137e-59
2.3344321454543e-60
9.8817455005132e-60
3.8106057111017e-61
1.8970609961557e-60
9.9017177423193e-62
2.5171260200078e-61
1.8620139949683e-62
7.7688370035861e-62
3.5764703074744e-63
1.4726364792293e-62
6.8513184372037e-64
2.8132407104293e-63
1.2774677314925e-64
5.413585790771e-64
2.0945994402617e-65
1.0381655038476e-64
5.436210348191e-66
1.3803645514905e-65
1.2898615174752e-66
3.5208023604636e-66
2.1518678189095e-67
1.0267520554197e-66
5.3760091743493e-68
1.4143427223077e-67
1.0157583855479e-68
4.2042802700938e-68
1.6561197726363e-69
8.2582668227096e-69
4.2723600793723e-70
1.0931453134124e-69
1.0107854627769e-70
2.7653155281078e-70
1.6368967702655e-71
8.1173024251388e-71
3.1339608555469e-72
1.2764416725186e-71
8.0387184124915e-73
2.0741795625413e-72
1.9981956593928e-73
5.1645933149574e-73
4.3557473731429e-74
1.2924363215878e-73
1.0599652550681e-74
2.7463172535755e-74
2.5826825789988e-75
6.6389412270165e-75
5.9839389296382e-76
1.6005667569411e-75
1.6293205527789e-76
3.4927996971352e-76
1.2929187702812e-76
0
0
0
0
0
0
0
0
0
0
0
0
0
0
0
0
0
0
6.1866481077123e-69
3.1122557858112e-69
5.4793935277417e-67
2.8217785791355e-67
1.4838973108264e-65
7.7359203478737e-66
3.0825903928685e-64
1.6256411980741e-64
4.9336198309939e-63
2.6709132955273e-63
6.2613500544371e-62
3.3533787405506e-62
1.4787867801026e-60
7.911008171981e-61
1.6088703784757e-59
8.9300269237307e-60
1.4912778046915e-58
8.3487972967785e-59
1.1330975411136e-57
6.4500308751975e-58
9.9662388770631e-57
5.5312151154519e-57
6.2708112126605e-56
5.5286661683941e-56
7.5032572681453e-56
7.0554854560234e-56
8.1128040445912e-55
7.8466786227682e-55
7.1331462185022e-55
8.5481488530781e-55
1.3754352463731e-55
5.7577111068788e-55
2.5349797889976e-56
1.1219372674742e-55
4.6104085955167e-57
2.073938929446e-56
8.3826116697032e-58
3.7721474285464e-57
1.5241111924998e-58
6.8585004772034e-58
2.7808123984857e-59
1.2460299526512e-58
5.9977885857099e-54
0
1.0905386009652e-54
4.9072499847448e-54
1.9831226265661e-55
8.9222633830855e-55
2.2652470231121e-53
0
1.3859936874602e-53
8.7925333565195e-54
2.5697355870456e-47
8.7581154020301e-48
1.7319992718944e-46
1.3487497719126e-46
5.586108465721e-48
1.6761381872372e-46
7.686264234488e-48
0
4.6420944870851e-49
7.2220547857795e-48
2.0263100682682e-49
3.061670789764e-49
1.90463569624e-50
2.7790626097626e-49
1.9003598134282e-50
2.1379778898441e-53
8.9429922846347e-52
1.8109298905855e-50
1.6911747864299e-51
0
4.6519709243842e-52
1.0466933892133e-51
1.7777967029966e-52
6.6548636055344e-52
1.7777968691497e-52
2.5510208663015e-60
3.849282400697e-52
0
2.8801580187248e-49
0
8.8652639287387e-50
1.9946627925414e-49
3.4634809344753e-50
7.808082370484e-50
2.0450272573774e-50
1.4184539681333e-50
1.4297402747399e-48
0
1.4298516319007e-48
0
2.599735855129e-49
1.169878073205e-48
3.0590509741884e-49
0
5.5619192468208e-50
2.5028601645421e-49
6.4503578275004e-50
0
3.8785934184096e-51
6.0625281983397e-50
3.8789211408852e-51
0
4.3682114260051e-51
0
7.9438002123794e-52
3.5741698920728e-51
8.769965267683e-52
0
1.5960302411657e-52
7.1769742934702e-52
2.9148208005967e-53
1.3071485766407e-52
3.2319618779559e-53
0
5.94839612846e-54
2.650148409978e-53
6.5041985992166e-54
0
9.2592952283095e-55
5.5984789055679e-54
9.2931532579171e-55
0
6.0999606648441e-55
0
6.1015604861196e-55
0
5.4334146043989e-55
0
9.2976537684589e-56
4.5037258592782e-55
1.6909868855184e-56
7.6068152869582e-56
7.1206712496117e-57
0
7.1199978599641e-57
0
2.3548344913763e-58
6.8845261020132e-57
2.3546139139451e-58
0
1.7552679707517e-59
2.1790913674856e-58
1.7552761341146e-59
0
9.4235611860714e-60
0
6.7510047150651e-60
0
6.7510055107035e-60
0
1.690477976199e-60
0
1.6846921027474e-60
0
3.3581857647352e-62
1.6511102515955e-60
2.6705464381051e-62
0
2.0934648278004e-62
0
9.4519589139468e-64
1.9989452449624e-62
9.2107938603264e-64
0
4.1455879462628e-64
0
2.0038930124631e-64
0
1.8864591361597e-64
0
4.1525655621067e-65
9.723461371658e-65
2.9709021071691e-65
0
6.4022896463496e-66
1.8231490071859e-65
3.6140227213991e-66
3.0385816786431e-66
2.2789362589823e-66
0
0
0
0
0
0
0
0
0
0
0
0
0
0
1.4927874009865e-59
7.4717302698612e-60
1.7985855635609e-57
9.0632592518082e-58
1.0638624649147e-55
5.4020840386518e-56
4.1202042529203e-54
2.1094006690287e-54
1.1778275717545e-52
6.081868451303e-53
2.6567153242158e-51
1.3839962497473e-51
4.9225499301269e-50
2.5880671102178e-50
7.676595696959e-49
4.0755207864608e-49
1.023677122617e-47
5.4910276119529e-48
1.1842096120297e-46
6.4194190026871e-47
1.2102505551285e-45
6.6264817196387e-46
1.1189424129384e-44
6.1789862544456e-45
9.6067111568713e-44
5.3398535156371e-44
7.827198085975e-43
4.3722107838643e-43
6.1201352414227e-42
3.4335305087162e-42
4.5914643467898e-41
2.5884881374151e-41
3.2807699856381e-40
1.8609187200435e-40
2.2122523688147e-39
1.2644156831154e-39
1.3970038709797e-38
8.0570081805714e-39
8.2200615092665e-38
4.7896543827374e-38
4.494838689645e-37
2.648719976773e-37
2.2819700699473e-36
1.3610936724825e-36
1.075795516732e-35
6.4993736789032e-36
4.7131176560859e-35
2.8859208066996e-35
1.9209446929295e-34
1.1928158932854e-34
7.2924506991938e-34
4.5946230063458e-34
2.581780171396e-33
1.651362183499e-33
8.5344903070095e-33
5.5446343617832e-33
2.6372913654923e-32
1.741200959049e-32
7.6270596120537e-32
5.1199234388671e-32
2.0666440693703e-31
1.4112444276755e-31
5.2526775954199e-31
3.650509124544e-31
1.253767411963e-30
8.8719505989034e-31
2.813939219131e-30
2.0282610811269e-30
5.9462002341847e-30
4.3673366584845e-30
1.1845883244502e-29
8.8687351878628e-30
2.2276270738571e-29
1.7006202040901e-29
3.9581344680275e-29
3.0826114816908e-29
6.6478877186124e-29
5.2852601685369e-29
1.0547471800411e-28
8.5697833410582e-29
1.576991006455e-28
1.312102560921e-28
2.2076453188129e-28
1.8892176231072e-28
2.8444065577852e-28
2.5310460167512e-28
3.2646216426079e-28
3.0760778543946e-28
3.356781243742e-28
3.31771209312e-28
3.3590443659314e-28
3.3374698287639e-28
3.2547496295788e-28
3.2784601849102e-28
2.9960404503827e-28
3.0974682774471e-28
2.5397367411833e-28
2.7377634471471e-28
1.9367627784827e-28
2.2100095558835e-28
1.2932769066599e-28
1.5897318295281e-28
7.3449036618574e-29
9.9270739426497e-29
3.4547196425993e-29
5.242584072574e-29
1.3330293129485e-29
2.3002345063641e-29
4.3359068263439e-30
8.4325299051334e-30
1.2692382401545e-30
2.6875077949053e-30
3.5880378818441e-31
7.9178374170456e-31
1.0204648208405e-31
2.2737590193697e-31
2.9502111199044e-32
6.5439529048693e-32
8.6440795664913e-33
1.9027122302674e-32
2.5564670784469e-33
5.5877475885719e-33
7.6189685575146e-34
1.6550064141575e-33
2.2875273690061e-34
4.9404507065953e-34
6.9153362600466e-35
1.4857932687155e-34
2.1014431730225e-35
4.4970027820956e-35
6.4019268410276e-36
1.3670272389473e-35
1.9491228607272e-36
4.1621153767112e-36
5.9138053717153e-37
1.2654858688823e-36
1.7843318915254e-37
3.8326929243034e-37
5.3470448949079e-38
1.1541519722945e-37
1.590481923438e-38
3.4519531212348e-38
4.6951676329538e-39
1.0249160928005e-38
1.3756179982934e-39
3.0203914111328e-39
4.0005317357841e-40
8.8347792062234e-40
1.1549756603365e-40
2.565233192885e-40
3.3108300159284e-41
7.394641352905e-41
9.4253063644227e-42
2.1166138453775e-41
2.6652841613954e-42
6.0171024408776e-42
7.4882569128662e-43
1.6992191331551e-42
2.0907761376624e-43
4.7678898505807e-43
5.8025964345681e-44
1.32958692761e-43
1.6011074093845e-44
3.6856822402652e-44
4.3933254371712e-45
1.0158359155303e-44
1.1990264667095e-45
2.7843516894154e-45
3.2554449325848e-46
7.5911231193269e-46
8.7946434618621e-47
2.058979004389e-46
2.3644256016224e-47
5.5570167332847e-47
6.3274216315396e-48
1.4925892977498e-47
1.6850262899315e-48
3.9911845860892e-48
4.4817824310051e-49
1.0609779288218e-48
1.156451300209e-49
2.8410885846646e-49
3.6441243315985e-50
6.8442259992481e-50
3.0491115003589e-50
0
0
0
0
0
0
0
0
0
0
0
0
1.3423208137957e-59
6.6999386783187e-60
2.4150596726584e-57
1.2052570992271e-57
1.9325675667105e-55
9.6772394750698e-56
9.6070449007542e-54
4.8360792739611e-54
3.4018855979645e-52
1.7235928314459e-52
9.2594622850366e-51
4.7256312111301e-51
2.0339141859114e-49
1.0462288630592e-49
3.7208663204703e-48
1.9302289358955e-48
5.7870844338387e-47
3.0293722463374e-47
7.7734419452711e-46
4.1084616325071e-46
9.1347342059586e-45
4.8771227386391e-45
9.4867499163735e-44
5.1185826790296e-44
8.8011261864525e-43
4.7976902740063e-43
7.4208407047919e-42
4.0813655288124e-42
5.8230683133922e-41
3.2238321144804e-41
4.3454817238557e-40
2.4169311771069e-40
3.1181028367356e-39
1.7411695201687e-39
2.1513148309287e-38
1.2068946668915e-38
1.4188847841014e-37
8.0073696965909e-38
8.8806059907416e-37
5.0486819482447e-37
5.2388271133143e-36
3.0044583518245e-36
2.896912677194e-35
1.6781973117104e-35
1.4956912295987e-34
8.7632139610797e-35
7.1926407085047e-34
4.2668603110707e-34
3.2175282298942e-33
1.93449858354e-33
1.3383186570012e-32
8.1621904151141e-33
5.1767815819858e-32
3.2050897659407e-32
1.8631181351066e-31
1.1717946760447e-31
6.2434366592068e-31
3.9914832921393e-31
1.9499130637779e-30
1.2678452832605e-30
5.6820183691222e-30
3.7592725127428e-30
1.5469216414442e-29
1.0418172740139e-29
3.9409812584382e-29
2.7025687327423e-29
9.4126995284622e-29
6.5737966691842e-29
2.1119506632906e-28
1.5023100358861e-28
4.460826291991e-28
3.2321989956439e-28
8.8865142145894e-28
6.5596960817965e-28
1.6721403967544e-27
1.2578561426728e-27
2.9745571661109e-27
2.2815599094179e-27
5.0033748490295e-27
3.9165305698209e-27
7.9523737276975e-27
6.3609219156619e-27
1.191679208621e-26
9.760146630878e-27
1.67395181534e-26
1.4095746994992e-26
2.1705777697288e-26
1.8977829671724e-26
2.5196065424213e-26
2.3278575227758e-26
2.6119225856873e-26
2.5393757817336e-26
2.6149553942104e-26
2.5640655403546e-26
2.5479517053098e-26
2.5271384467392e-26
2.3658239448723e-26
2.4038462570461e-26
2.0315189455478e-26
2.1475824254479e-26
1.5766311362934e-26
1.7597062479442e-26
1.0776400076271e-26
1.2912129421748e-26
6.3124311811066e-27
8.2766523756671e-27
3.0893447916961e-27
4.5213192604611e-27
1.2491692843383e-27
2.067689606691e-27
4.2601439014636e-28
7.9335456322148e-28
1.2973420221828e-28
2.6396487526432e-28
3.7747476662789e-29
8.0541638065104e-29
1.0973068532153e-29
2.3760568776605e-29
3.23618660882e-30
6.9928351497415e-30
9.6826755213298e-31
2.0768735548312e-30
2.9302782348971e-31
6.2361642587751e-31
8.9548285995614e-32
1.8918719021728e-31
2.7614175500253e-32
5.7949661176478e-32
8.5823025961162e-33
1.7907657291421e-32
2.6815770817417e-33
5.5732081329508e-33
8.3934367922363e-34
1.7418126846778e-33
2.6216167821776e-34
5.4470054306114e-34
8.1438548720406e-35
1.6982822786158e-34
2.5103448960551e-35
5.2637005356873e-35
7.6696654284133e-36
1.6187356822471e-35
2.3217841465035e-36
4.934661327017e-36
6.9651750238723e-37
1.490820998566e-36
2.0712830408021e-37
4.4640560418643e-37
6.107758161262e-38
1.3251946581141e-37
1.7864338442451e-38
3.9012028215519e-38
5.1841559906716e-39
1.1392241236348e-38
1.4930708984356e-39
3.3009234794676e-39
4.2689601210016e-40
9.4930064458016e-40
1.2120793220833e-40
2.7104532997753e-40
3.4184701559993e-41
7.685574401501e-41
9.5795103269442e-42
2.1648580653793e-41
2.6679533861045e-42
6.0592401819431e-42
7.3865720752301e-43
1.6855958373773e-42
2.0334702012156e-43
4.6616549750011e-43
5.5674657549605e-44
1.2819681738672e-43
1.5163235062201e-44
3.5063730786542e-44
4.1088695723487e-45
9.5405230032378e-45
1.1080284162987e-45
2.5828099280097e-45
2.972809133455e-46
6.959557488614e-46
7.964852326307e-47
1.8638716420153e-46
2.0693790013919e-47
5.0281645855383e-47
6.5748018367887e-48
1.2184796376073e-47
5.4882997666061e-48
0
0
0
0
0
0
0
0
0
0
6.1325960869584e-60
3.0476150174489e-60
1.4870213789238e-57
7.368880449243e-58
1.5458164334058e-55
7.6598819818779e-56
9.6107366288284e-54
4.773117133995e-54
4.1465018586403e-52
2.067408825427e-52
1.3478160574245e-50
6.7548539729664e-51
3.4785449374233e-49
1.7540116600246e-49
7.3939514095848e-48
3.754000213497e-48
1.32686275994e-46
6.7878806924044e-47
2.0459327040604e-45
1.0553170310877e-45
2.7490290190444e-44
1.4306604175981e-44
3.2531237290155e-43
1.709231719954e-43
3.4178607975413e-42
1.8140138232385e-42
3.2158708552483e-41
1.7248395968708e-41
2.7303753610255e-40
1.4799477963562e-40
2.1146941241867e-39
1.1569358269861e-39
1.5271588306553e-38
8.4082775147714e-39
1.058403824626e-37
5.8461180702151e-38
7.1484732206614e-37
3.9583493509641e-37
4.6731427065453e-36
2.6002267918114e-36
2.9134019519072e-35
1.6344074119206e-35
1.7156843485521e-34
9.7270926790416e-35
9.5083001190888e-34
5.4543075431981e-34
4.9503575836085e-33
2.8750036708752e-33
2.4166141520602e-32
1.4217793542638e-32
1.1035481068652e-31
6.5818888019802e-32
4.7024659528961e-31
2.8456528888217e-31
1.8657311435987e-30
1.1465637232869e-30
6.8796685251817e-30
4.2975767387421e-30
2.3543573997481e-29
1.4964302018933e-29
7.4704188885447e-29
4.8358468260129e-29
2.1967002448861e-28
1.4495533341082e-28
5.9865874249862e-28
4.030132011145e-28
1.5132774976918e-27
1.0398739996127e-27
3.5544459406411e-27
2.4937071873838e-27
7.7820705143787e-27
5.5723943169866e-27
1.595541984562e-26
1.1649569523878e-26
3.0819703777659e-26
2.2908796518087e-26
5.6458242074823e-26
4.2644177600086e-26
9.8649450983905e-26
7.5596821265284e-26
1.6492643224841e-25
1.2815910223651e-25
2.6364426207998e-25
2.0797962254191e-25
4.0108400788906e-25
3.2219495466109e-25
5.7558417208393e-25
4.7342045514821e-25
7.6663180548824e-25
6.5224758091514e-25
9.1912537413554e-25
8.2386262949164e-25
9.743362678341e-25
9.2573115525882e-25
9.7754926717614e-25
9.4520208046488e-25
9.6059076855454e-25
9.3622002767676e-25
9.0278523147254e-25
8.9923567971706e-25
7.8793956169443e-25
8.1478162666499e-25
6.2403085695373e-25
6.797717309451e-25
4.372548698602e-25
5.0991681731266e-25
2.6415692785894e-25
3.3581343275021e-25
1.342872464908e-25
1.8963268211518e-25
5.6747826167449e-26
9.0215141695181e-26
2.0249145986878e-26
3.6146968494643e-26
6.4138269329082e-27
1.2540085156502e-26
1.9231700375004e-27
3.9638477014532e-27
5.7227491523082e-28
1.2026641603541e-27
1.7236539174997e-28
3.6237790446577e-28
5.2705803155646e-29
1.1004412920171e-28
1.6333469380951e-29
3.3812328778537e-29
5.1224400798036e-30
1.051522413208e-29
1.6239903266725e-30
3.3080863673512e-30
5.1946825622021e-31
1.0515367273184e-30
1.6707742147072e-31
3.3689003079579e-31
5.3787366733356e-32
1.0837100574589e-31
1.7250367353299e-32
3.4843908798969e-32
5.4902536809857e-33
1.1149349306407e-32
1.7298214920847e-33
3.5386624744328e-33
5.3899196658993e-34
1.1118313980429e-33
1.66086300109e-34
3.4555645153648e-34
5.0637438076536e-35
1.0624311722201e-34
1.5284902980832e-35
3.2327552954338e-35
4.570316955452e-36
9.7401371655811e-36
1.3543251813292e-36
2.9073216173875e-36
3.9789449316419e-37
8.6009831102999e-37
1.1594339387738e-37
2.5229272568676e-37
3.3521030751184e-38
7.3405528193955e-38
9.6191612537687e-39
2.1192397940155e-38
2.7406491945126e-39
6.0731235426931e-39
7.7554157451454e-40
1.7281053336921e-39
2.1803278696292e-40
4.8841711870226e-40
6.0915033797918e-41
1.3715184148903e-40
1.6917101105586e-41
3.8275558829625e-41
4.671233662135e-42
1.0618466089579e-41
1.2827454546184e-42
2.929046242455e-42
3.5038249272904e-43
8.0355111019552e-43
9.5224075969659e-44
2.1928278120373e-43
2.5742299953954e-44
5.954846818984e-44
6.9482157273666e-45
1.6068800226796e-44
1.8178808520737e-45
4.3676068375026e-45
5.8244739339423e-46
1.0647478301517e-45
4.8500624514524e-46
0
0
0
0
0
0
0
0
0
0
3.7673114632704e-58
1.8429150248534e-58
6.5395995769322e-56
3.2004424954267e-56
5.4656706355728e-54
2.6788019041119e-54
2.9346549125113e-52
1.4420809494267e-52
1.1432257964084e-50
5.6382511362444e-51
3.4575591660612e-49
1.712995955513e-49
8.4796469166044e-48
4.2235566995366e-48
1.7392404450064e-46
8.7153236718751e-47
3.0469427414119e-45
1.5371458211507e-45
4.6316755035864e-44
2.3540300940559e-44
6.1863979927925e-43
3.1698923644774e-43
7.3224553560053e-42
3.7852480766763e-42
7.7408666411665e-41
4.0396459727378e-41
7.3590658935412e-40
3.8792898726933e-40
6.323099525878e-39
3.3689705192356e-39
4.9305672594402e-38
2.6556583240516e-38
3.5291038832715e-37
1.9188572073153e-37
2.3649921994519e-36
1.293097910125e-36
1.5366205617843e-35
8.4036065548806e-36
1.0051712225793e-34
5.4850076732513e-35
6.685529578579e-34
3.6528075808601e-34
4.4215550250506e-33
2.4347911277147e-33
2.8201909207418e-32
1.573056994812e-32
1.6954017420581e-31
9.6027730663874e-32
9.4730247113687e-31
5.4543881674694e-31
4.8807514606066e-30
2.8586520754862e-30
2.3086651846882e-29
1.3763135929442e-29
1.0002390900529e-28
6.0734730547913e-29
3.9650495076118e-28
2.4541215473073e-28
1.437507970878e-27
9.0774587032042e-28
4.7648029105636e-27
3.0731090178439e-27
1.4429276028605e-26
9.5179459291024e-27
3.9863970408583e-26
2.6938763267539e-26
1.0025119959412e-25
6.9546424207175e-26
2.2883806702241e-25
1.6335270366186e-25
4.7285833829276e-25
3.4813619029566e-25
8.8416692158725e-25
6.7229247290381e-25
1.5037422331072e-24
1.1795731766177e-24
2.3575446586906e-24
1.898657620611e-24
3.4799251645588e-24
2.8536798066195e-24
4.9534490227785e-24
4.097394518951e-24
6.9333254172322e-24
5.7425499942509e-24
9.6246158261468e-24
7.9612346600219e-24
1.3172138381574e-23
1.0923937512079e-23
1.7399022664681e-23
1.4637563733598e-23
2.1337931079319e-23
1.8615232433515e-23
2.330813471501e-23
2.1528842391629e-23
2.3509938159014e-23
2.2396675255811e-23
2.3304183870394e-23
2.2292025317317e-23
2.219449790812e-23
2.1638149465614e-23
1.9721219266307e-23
1.9913806552461e-23
1.5966937644838e-23
1.6946555705878e-23
1.1481791816228e-23
1.3014703458783e-23
7.1531152744537e-24
8.8111347251362e-24
3.7716329122537e-24
5.1402936317316e-24
1.6616931020448e-24
2.5394876353565e-24
6.1908069068049e-25
1.0602790602469e-24
2.0385270900923e-25
3.8300735024394e-25
6.3058107274329e-26
1.2542792347348e-25
1.9238655571589e-26
3.9182233889637e-26
5.9265060639649e-27
1.2104242636035e-26
1.8542941529266e-27
3.7632812758819e-27
5.8908368833676e-28
1.184666295135e-27
1.8980482141531e-28
3.7810587445875e-28
6.1938671618226e-29
1.2231921101922e-28
2.0416446943348e-29
4.0045229569425e-29
6.7677152035886e-30
1.3224088584459e-29
2.2434127249458e-30
4.383780434972e-30
7.3951253113188e-31
1.4507682510587e-30
2.4133927149572e-31
4.7687088679335e-31
7.7771378973722e-32
1.5510721546134e-31
2.4725408354855e-32
4.9820071188716e-32
7.7579170783232e-33
1.5793289400761e-32
2.4044217885993e-33
4.9431392947286e-33
7.3681412479269e-34
1.5287586489515e-33
2.2343057775232e-34
4.6756967937328e-34
6.7088308402069e-35
1.4152899432744e-34
1.995733681318e-35
4.2423198021174e-35
5.8845785644048e-36
1.259938572834e-35
1.7205885815858e-36
3.709279475525e-36
4.99078892204e-37
1.082968160851e-36
1.4366881902861e-37
3.1369496620229e-37
4.1059689094574e-38
9.0184728655332e-38
1.1654004710145e-38
2.574232606826e-38
3.286066933056e-39
7.2978659624158e-39
9.2075574279157e-40
2.0554663755717e-39
2.5644564186886e-40
5.7532671856231e-40
7.1012921010701e-41
1.6007468601436e-40
1.9555479362521e-41
4.428355546571e-41
5.3568013198256e-42
1.2183238171007e-41
1.459306162435e-42
3.334750235749e-42
3.9686538585511e-43
9.0679852487091e-43
1.0457187398591e-43
2.4836842494499e-43
3.3793635269147e-44
6.0914651140112e-44
2.8069043981779e-44
0
0
0
0
0
0
0
0
4.5282017665765e-69
1.1322915309824e-69
1.1186773670064e-56
5.3803228657839e-57
1.6951513203618e-54
8.1730020429023e-55
1.2680209693167e-52
6.1312094146291e-53
6.2297294222627e-51
3.0225071744168e-51
2.2604690872114e-49
1.1010700558812e-49
6.4607613822255e-48
3.1612351188275e-48
1.5153295763419e-46
7.4518369216643e-47
3.0018310993011e-45
1.4844050532225e-45
5.1228115934443e-44
2.5487509294493e-44
7.6460064847195e-43
3.829648381896e-43
1.0099230401084e-41
5.0957911849694e-42
1.1891972595542e-40
6.0487877249293e-41
1.2582929694549e-39
6.4564882064841e-40
1.2023145265596e-38
6.2280300493018e-39
1.0416415743812e-37
5.4500100511197e-38
8.2312974972284e-37
4.3541270360199e-37
5.9276583306472e-36
3.1722337022159e-36
3.9106033375723e-35
2.1121501462525e-35
2.4536311055928e-34
1.3267723117703e-34
1.5730353534133e-33
8.4368479666879e-34
1.0926839532109e-32
5.8064201243585e-33
8.2106645193544e-32
4.3584764739781e-32
6.3062304482571e-31
3.3765650324659e-31
4.6469415808284e-30
2.5254168032671e-30
3.157224032086e-29
1.7465366514186e-29
1.9409529700722e-28
1.0942851095069e-28
1.071274489011e-27
6.1605918101827e-28
5.2929626535096e-27
3.1076252338326e-27
2.3394580992444e-26
1.4039125959155e-26
9.252934962136e-26
5.6828177689057e-26
3.2770921625803e-25
2.0629646095804e-25
1.0396036452793e-24
6.7192025318609e-25
2.9553534804086e-24
1.9652372400151e-24
7.5138394869701e-24
5.1542323750436e-24
1.7053767361873e-23
1.2101103482496e-23
3.4491717953049e-23
2.5410490987675e-23
6.1688281428729e-23
4.7491381998407e-23
9.6080539118085e-23
7.7990618162542e-23
1.294381169223e-22
1.1115532440109e-22
1.550060615693e-22
1.3900573405777e-22
1.7426877304939e-22
1.5940323664637e-22
1.9302083982032e-22
1.7663335968724e-22
2.1736442094791e-22
1.9632238027347e-22
2.5268793372989e-22
2.236817837156e-22
3.0187991069636e-22
2.626458261249e-22
3.5897852346354e-22
3.1250016313256e-22
4.0019802667456e-22
3.602409939164e-22
4.0860177711377e-22
3.8228701806809e-22
4.0790636100802e-22
3.8316777116033e-22
3.9282695402518e-22
3.7502350928014e-22
3.5636859000181e-22
3.5089387909824e-22
2.9527120817666e-22
3.0490042879669e-22
2.1817175960865e-22
2.4002839449582e-22
1.4021144428728e-22