/*--------------------------------*- C++ -*----------------------------------*\
  =========                 |
  \\      /  F ield         | OpenFOAM: The Open Source CFD Toolbox
   \\    /   O peration     | Website:  https://openfoam.org
    \\  /    A nd           | Version:  7
     \\/     M anipulation  |
\*---------------------------------------------------------------------------*/
FoamFile
{
    version     2.0;
    format      ascii;
    class       volScalarField;
    location    "2.7";
    object      alpha.water;
}
// * * * * * * * * * * * * * * * * * * * * * * * * * * * * * * * * * * * * * //

dimensions      [0 0 0 0 0 0 0];

internalField   nonuniform List<scalar> 
6000
(
0
0
0
0
0
0
0
0
0
0
0
0
0
0
0
0
0
0
0
0
0
0
0
0
0
0
0
0
0
0
0
0
0
0
0
0
0
0
0
0
0
0
0
0
0
0
0
0
0
0
0
0
0
0
0
0
0
0
0
0
0
0
0
0
0
0
0
0
0
0
0
0
0
0
0
0
0
0
0
0
0
0
0
0
0
0
0
0
0
0
0
0
0
0
0
0
0
0
0
0
0
0
0
0
0
0
0
0
0
0
0
0
0
0
0
0
0
0
0
6.9006081203287e-206
1.0034517268457e-205
1.6392459079087e-205
1.9835846507087e-206
5.5329046628181e-223
1.7893680745727e-186
7.3203521315979e-186
1.5356895374291e-236
6.0712584045486e-238
3.0619222889772e-203
2.3160379347892e-187
9.3773251143333e-187
4.637532727432e-223
1.825809376525e-187
3.5045617035145e-187
8.8310223100006e-187
1.7095645146864e-186
-2.4236296819124e-258
4.5004484130061e-223
9.7189133971963e-188
1.3491176239954e-187
2.551601907481e-204
2.9622473644549e-188
1.318092902838e-241
3.4358690722963e-189
0
6.4646436483296e-190
6.6539382676472e-190
9.9671949510977e-207
1.1112761340201e-190
6.2294968444361e-207
1.7312545199765e-191
1.3949938169075e-191
4.9835974755489e-207
1.9344088488484e-192
6.9497824170743e-207
1.1534302751026e-206
4.6409443160629e-194
2.1317776213157e-206
5.8533500838975e-195
6.8830312899989e-206
7.0828449087548e-196
4.4420292953143e-205
5.7712420737268e-197
2.057373687684e-205
5.1953983411434e-198
2.5276611710601e-198
3.652455591308e-204
2.2080058027505e-199
1.4659159269494e-199
6.0655920661358e-200
3.8207568628745e-200
2.3452091597262e-203
3.7877128492771e-201
3.5922615257557e-203
2.8533510930782e-202
2.2109234718361e-203
4.5341309895351e-203
2.6106910746889e-203
1.057872118843e-203
6.4713079519562e-204
2.5145067833973e-204
1.4570160028467e-204
5.4878143547177e-205
3.0512980322772e-205
1.4601143853956e-205
5.1646186426792e-206
2.6420171065891e-206
9.0211611834199e-207
4.4285350911177e-207
1.4681198915865e-207
5.4104618966049e-208
2.5254682437176e-208
8.5615013275606e-209
3.7500390570138e-209
1.154276860076e-209
5.0375623332307e-210
1.9338987532216e-210
5.8304771690911e-211
2.4643066831659e-211
1.0891035856152e-211
0
0
0
0
0
0
0
0
0
0
0
0
0
0
0
0
0
0
0
3.0356584512359e-149
1.6653626176271e-145
6.1469063362202e-155
4.1949644667366e-137
3.5668640719346e-120
5.5469486815709e-120
6.1921520110592e-120
4.075933130419e-120
-6.1919782263592e-122
-1.5289330087709e-129
2.104307014794e-121
3.0045403761232e-121
4.9892329692103e-120
0
-1.9200008439077e-138
4.5934955451602e-121
3.5312239571954e-120
3.3972996766262e-119
1.7000048651582e-119
2.1462939412562e-120
2.5369808362689e-119
0
7.3107503262162e-119
5.1930677093024e-123
0
7.9264857986048e-122
4.299440708843e-138
3.6245535732016e-121
7.4843268725606e-122
4.1575092166299e-122
2.6591675079159e-122
8.094199068269e-123
1.6163214018396e-122
2.8284416192658e-123
7.0156006454156e-124
5.600441161654e-124
0
3.9257577729097e-125
0
6.4892585843802e-130
-1.6284943896219e-143
2.1458170190186e-131
1.7783655757168e-128
0
8.7382208662622e-131
0
0
8.6139159629501e-132
0
1.4238778516211e-136
0
2.2612858096908e-135
1.287410135484e-135
3.0917763343191e-135
1.9562304573748e-139
0
0
2.2472222140808e-138
3.2214633291248e-142
7.6331455920878e-156
3.1714324223814e-141
0
1.6394968132551e-141
-3.5564139991761e-159
2.7281101220997e-146
2.5594599036632e-143
1.7546837130316e-143
4.5989441703344e-144
0
7.9116476324488e-149
6.1135424422499e-146
1.085331420647e-163
4.1283068851147e-147
7.0985392567821e-148
6.8430059449206e-149
5.1793856074322e-149
2.0703875557784e-149
4.3355979684147e-150
-6.6243372842225e-168
4.8315670511649e-152
1.650294755053e-151
0
0
0
0
0
0
0
0
0
0
0
0
0
0
0
0
0
-3.1490001898675e-87
-4.7594392615571e-86
-5.2577251038529e-85
-3.9484487223049e-84
-2.0297061765179e-83
-8.6125471539433e-83
9.8998426415182e-70
-3.1615402805275e-72
2.9099997496068e-73
-8.2529433957076e-74
-2.2622369543187e-75
2.2622131022498e-75
1.2983363930661e-72
-7.2373719884698e-75
4.4647944971964e-101
-3.0190020140723e-85
3.0190100237288e-85
5.3399041813248e-70
6.9352064427782e-61
5.3846194809881e-60
-2.9578877301198e-77
6.5396604376903e-63
5.7364527861035e-62
5.3753094872387e-62
1.9770041156269e-61
8.9051202441403e-61
3.4904547923068e-60
1.9345733820608e-59
7.9347442613615e-59
3.5114822327455e-58
1.0282603747923e-57
3.4532728023148e-57
1.0673574169522e-56
2.9913939381682e-56
8.2225357584026e-56
1.7535399093351e-55
4.332764810928e-55
8.7915677212079e-55
1.6633857715954e-54
4.0023669960087e-54
7.1771418217048e-54
1.4471317964961e-53
2.2354867485721e-53
2.5927652953917e-53
3.0761739898789e-53
2.9074948906758e-53
3.0166064407634e-53
2.7957575596779e-53
2.4399710347978e-53
2.0628878113471e-53
1.4273679025095e-53
8.6200178601086e-54
3.3165534118542e-54
5.7108501982321e-55
8.7070234834574e-56
4.881464473657e-57
2.2368534145672e-57
1.8990945527863e-58
3.0398577350156e-59
1.6949305913262e-59
1.4843503578565e-60
1.7439314441613e-61
4.2635315356592e-62
8.7571659460215e-63
1.6310144032432e-63
9.5692292319162e-64
3.524273854807e-64
2.5948675898433e-65
1.0527906771849e-65
8.4156942070867e-67
1.3256263978098e-67
7.4766598158483e-68
2.7278964489421e-68
2.0925815942985e-69
2.6090137610127e-70
1.4275492583907e-70
4.9891104381283e-71
1.0707973992018e-71
2.7197943129851e-72
6.9417915451344e-73
1.7165866568756e-73
3.3341196513566e-74
1.5207950657362e-74
0
0
0
0
0
0
0
0
0
5.9142519125973e-67
5.2806845702099e-65
1.4496241649204e-63
3.0594403070861e-62
4.9562695110429e-61
6.2506848584561e-60
1.4815862412553e-58
1.6480842575376e-57
1.5661307370849e-56
1.1957597992595e-55
1.03155654725e-54
1.0559588359234e-53
1.2129611916025e-53
1.5683399334196e-52
1.301218032418e-52
-4.1353909710942e-60
-1.9045312935405e-64
-8.5889775474438e-68
0
1.8111358157654e-72
9.0556790788268e-73
1.3495502095249e-51
0
0
5.0968172190019e-51
-1.18694596822e-67
3.4442406212801e-45
3.2918296847957e-44
5.0950937587488e-61
4.3113296081194e-46
9.5665738209438e-62
1.0417084054366e-47
8.9723047573577e-48
1.0689524624228e-51
3.8665113876881e-60
2.7903153162061e-49
4.7505182080909e-50
3.327431873485e-50
1.1275681294851e-57
8.2639195501479e-50
1.1966005844203e-46
3.0722566172834e-56
3.9017007517297e-48
1.9028278993556e-55
2.0909283888348e-45
1.6646591298957e-49
1.8007780345098e-54
6.882870562114e-47
7.7521032747339e-54
1.3469865363978e-47
2.3720130731461e-53
2.7246009602937e-53
1.0764433517659e-48
3.1109662922949e-53
1.9732836887164e-49
2.9685776961757e-53
2.6044821924542e-53
7.2744670973866e-51
1.5314959946149e-53
1.3584992543362e-51
2.6064180466018e-54
8.4387324835239e-55
9.8105022952181e-52
9.0854428086689e-56
1.1171082221169e-52
1.1779927473437e-57
2.2011532261549e-58
1.0409116744102e-53
7.5880583348862e-58
1.628052880696e-60
2.5462544785263e-59
6.2893366148272e-62
1.201279734375e-62
5.3116709219377e-57
1.8249742040773e-57
1.2612326790919e-64
2.7043580396652e-57
2.0043413479266e-60
9.5850171503974e-67
3.4160357080311e-60
2.7085334850838e-60
1.0013995751904e-68
1.6030378363379e-62
2.2628888151944e-61
8.2437116710372e-62
2.5487816718497e-63
4.3574088950516e-62
1.791089008489e-63
5.2866946979911e-63
6.6878353255189e-64
6.6863833336606e-64
0
0
0
0
0
0
0
1.4122928769601e-57
1.7145007184083e-55
1.0221118668006e-53
3.9906906844471e-52
1.150303037299e-50
2.6167745808307e-49
4.8915906879101e-48
7.7000565710153e-47
1.0370383072494e-45
1.2119153941179e-44
1.2506335803133e-43
1.1660223438261e-42
1.0077447843447e-41
8.2532940463436e-41
6.4834903486833e-40
4.8894167990106e-39
3.5160985917236e-38
2.3895637842085e-37
1.5229044759724e-36
9.0543581662194e-36
5.0077372608282e-35
2.5736858704276e-34
1.2291971863803e-33
5.4594019454594e-33
2.2572400776966e-32
8.6982894429594e-32
3.1278304352995e-31
1.0508190519831e-30
3.3021303534383e-30
9.7170160569753e-30
2.6805638501158e-29
6.9399645450194e-29
1.6881925164892e-28
3.8631131682882e-28
8.3261560802973e-28
1.6923870262378e-27
3.2482175567751e-27
5.8930843199781e-27
1.0112596554928e-26
1.6410736737922e-26
2.5146913570484e-26
3.623949536988e-26
4.8612701217695e-26
5.9210312538993e-26
6.3873967374928e-26
6.3935238119405e-26
6.2774997665085e-26
5.9318815058127e-26
5.2423915397886e-26
4.2256367814274e-26
3.0277183114033e-26
1.8751280675989e-26
9.7400420007619e-27
4.1417238012936e-27
1.4406811924641e-27
4.2777339005183e-28
1.1755717249519e-28
3.2244339725998e-29
9.1165471453256e-30
2.649770957905e-30
7.8287800903749e-31
2.3352980462981e-31
7.0189949062306e-32
2.1244996399139e-32
6.4671827128193e-33
1.9747428266409e-33
6.0280361816963e-34
1.8335481803469e-34
5.5433977207003e-35
1.6633499024425e-35
4.950561215877e-36
1.4614012858311e-36
4.2797066393089e-37
1.2436366193016e-37
3.5867869357012e-38
1.0269346646767e-38
2.9194556563648e-39
8.2430313129335e-40
2.3121022519992e-40
6.4442363027294e-41
1.7851979599736e-41
4.9164689429131e-42
1.3463833775744e-42
3.667114336759e-43
9.9359097880274e-44
2.6785562824148e-44
7.1859571528778e-45
1.9187311234571e-45
5.1017730790561e-46
1.3468670474585e-46
3.6230037128378e-47
7.95051705419e-48
4.233094812971e-48
0
0
0
0
0
0
1.2682336161795e-57
2.2940658849063e-55
1.8476061815188e-53
9.2495934090015e-52
3.2998721942477e-50
9.0519769313194e-49
2.0044539565815e-47
3.6980644537844e-46
5.8029125935105e-45
7.8675956671077e-44
9.3358934269749e-43
9.7941187464692e-42
9.1772351821726e-41
7.8067544600676e-40
6.1690131757297e-39
4.6286686017175e-38
3.3374636440678e-37
2.3149111495429e-36
1.5364997342367e-35
9.6902351762669e-35
5.7677184246976e-34
3.2220702393851e-33
1.6826017484131e-32
8.1927765039211e-32
3.71441196013e-31
1.5672591549073e-30
6.1548724610583e-30
2.2507305694789e-29
7.6693780073139e-29
2.4373351767069e-28
7.2318663968571e-28
2.005911704769e-27
5.2088861898522e-27
1.2685291242706e-26
2.9027982871506e-26
6.2541423170118e-26
1.2710985238252e-25
2.4408015935491e-25
4.432858057723e-25
7.6176390321938e-25
1.2382660909122e-24
1.9012976018747e-24
2.7476065936297e-24
3.7025138848447e-24
4.5492139293442e-24
4.9640374966157e-24
4.9877204708911e-24
4.9120657224705e-24
4.6712321262607e-24
4.1734198243513e-24
3.4145722710162e-24
2.4962753740943e-24
1.5879831616612e-24
8.5462743008573e-25
3.8014498493259e-25
1.3925500941625e-25
4.3476060443229e-26
1.2424358741527e-26
3.497830508294e-27
1.0080352394367e-27
2.985117107841e-28
9.0083013323314e-29
2.7524871790022e-29
8.4928137208934e-30
2.6424164551686e-30
8.2716240352181e-31
2.5957974989556e-31
8.1323052601687e-32
2.5336565518376e-32
7.8285248135366e-33
2.3954866530945e-33
7.2568106798023e-34
2.177038440403e-34
6.4710667378158e-35
1.9067065661191e-35
5.5713318638295e-36
1.6148918935993e-36
4.6448432298912e-37
1.3261016454862e-37
3.7592094223911e-38
1.0584318823464e-38
2.9607544547058e-39
8.230642095871e-40
2.2744067047305e-40
6.2489918132205e-41
1.7074865615966e-41
4.6408988795042e-42
1.2549705278377e-42
3.3768653559429e-43
9.0465331025734e-44
2.4057876743752e-44
6.5181793724564e-45
1.4395986921319e-45
7.7321910896281e-46
0
0
0
0
0
5.7898576345504e-58
1.4095233019993e-55
1.4728530902957e-53
9.2121959560007e-52
4.0007748429523e-50
1.3096107320446e-48
3.4049365673821e-47
7.2933854796267e-46
1.3194137900929e-44
2.0517166568628e-43
2.7813299513447e-42
3.3221792301937e-41
3.5245860579855e-40
3.3498853381196e-39
2.8732904270579e-38
2.2462695424064e-37
1.6336066333052e-36
1.1372796481378e-35
7.7107702760837e-35
5.0671648013393e-34
3.1816293739407e-33
1.8896283705781e-32
1.0571335067157e-31
5.5604854944772e-31
2.7450183886566e-30
1.2690129045497e-29
5.4809525770171e-29
2.2068774780673e-28
8.2689446706932e-28
2.8791577823211e-27
9.3067513923833e-27
2.7913247828368e-26
7.7675143062969e-26
2.0066392030031e-25
4.8195067102822e-25
1.0789807092544e-24
2.2607102817003e-24
4.4570713672953e-24
8.3207826033304e-24
1.4797541395165e-23
2.517004820058e-23
4.0978811206928e-23
6.3660415850591e-23
9.3736803944105e-23
1.2934024637715e-22
1.6362465353957e-22
1.8398672171094e-22
1.8697830629943e-22
1.8493397613572e-22
1.7741595612735e-22
1.608287686364e-22
1.3396219988472e-22
1.0014170944307e-22
6.5484617126589e-23
3.648111997261e-23
1.6930187340181e-23
6.5093891917661e-24
2.1321362757695e-24
6.3383404337362e-25
1.8353588174218e-25
5.4023822345181e-26
1.6320926070782e-26
5.0346270467189e-27
1.5768137753773e-27
4.9985971646393e-28
1.6002450219042e-28
5.1567468932767e-29
1.6650034835109e-29
5.3588986154929e-30
1.7115987480878e-30
5.4084840297144e-31
1.6885162824902e-31
5.2080695660895e-32
1.5881422320672e-32
4.7920557805864e-33
1.4318697917955e-33
4.2392156469442e-34
1.2441248996623e-34
3.6208512943581e-35
1.0454187287624e-35
2.9954636720142e-36
8.520937602742e-37
2.407168857563e-37
6.7555001554091e-38
1.8839359304839e-38
5.2221488968781e-39
1.4391820101915e-39
3.9442721576776e-40
1.0752268826301e-40
2.9159815851441e-41
7.8716881626661e-42
2.1089505464455e-42
5.7559524317948e-43
1.2794618193022e-43
6.9349090333453e-44
0
0
0
0
0
3.5569883863648e-56
6.2066430415272e-54
5.2169076829798e-52
2.8182894177121e-50
1.1050633041368e-48
3.3651097929737e-47
8.3120450991613e-46
1.7175829445728e-44
3.0324487458674e-43
4.6471149940505e-42
6.2599503975865e-41
7.4759390440046e-40
7.9771912576595e-39
7.6581389806691e-38
6.6481243339703e-37
5.2383242819283e-36
3.7852571338141e-35
2.5539127542991e-34
1.6631450141977e-33
1.0866355632338e-32
7.2207720573946e-32
4.7864905571027e-31
3.0713209662932e-30
1.8631703311125e-29
1.0530145950337e-28
5.4984268059373e-28
2.6402821315855e-27
1.1630592288081e-26
4.6945708849179e-26
1.7355977757667e-25
5.8757093019501e-25
1.8205989078669e-24
5.1572426694633e-24
1.3331204961707e-23
3.1367178553619e-23
6.699856546463e-23
1.2973780425586e-22
2.2838431387201e-22
3.6905420491538e-22
5.5726406195824e-22
8.0446127560487e-22
1.1342790992236e-21
1.5824594999381e-21
2.1843471341839e-21
2.9413534153524e-21
3.7541276410302e-21
4.3505159502246e-21
4.510948190584e-21
4.4798326554276e-21
4.337627034873e-21
3.9965131631398e-21
3.3946379462563e-21
2.5985923661796e-21
1.7476282951261e-21
1.0069610796446e-21
4.8645750103879e-22
1.9571574619068e-22
6.710676439952e-23
2.0751417150054e-23
6.1916716149294e-24
1.865603358264e-24
5.7596580557911e-25
1.818403907205e-25
5.8435531910851e-26
1.9051694156383e-26
6.2826369067545e-27
2.0865807502067e-27
6.9396116112283e-28
2.297134409629e-28
7.5288657013265e-29
2.4350287366149e-29
7.761322971404e-30
2.4386015639051e-30
7.5613522065539e-31
2.3166784943633e-31
7.0211450525696e-32
2.1065572537957e-32
6.2606581717459e-33
1.8439986467162e-33
5.3850453312547e-34
1.5598832294869e-34
4.4837965086382e-35
1.2794302278064e-35
3.6254117339418e-36
1.0204899857278e-36
2.8543043778233e-37
7.9350854854601e-38
2.1931757906179e-38
6.0279753624014e-39
1.6478670154957e-39
4.4831193011587e-40
1.2102089145948e-40
3.327791828544e-41
7.4450621065241e-42
4.0738131461509e-42
0
0
0
0
4.2868041354247e-67
1.0559200839635e-54
1.6096065079703e-52
1.2114897205217e-50
5.9903135316994e-49
2.1881103937301e-47
6.2971597916934e-46
1.4874732248933e-44
2.9682978642179e-43
5.1041157464579e-42
7.6780639134821e-41
1.0225039920564e-39
1.2143692383341e-38
1.2964842497598e-37
1.2505611986229e-36
1.0941317769161e-35
8.7367628994263e-35
6.3624332976882e-34
4.2380626969604e-33
2.6674053047771e-32
1.7003185759976e-31
1.1692541786315e-30
8.7254288181143e-30
6.7026689342305e-29
4.9720112265169e-28
3.4159407606037e-27
2.1300466171917e-26
1.1952648428776e-25
6.0164738588152e-25
2.7144618047068e-24
1.0980252992292e-23
3.9853908731832e-23
1.2984337806522e-22
3.8003070725602e-22
9.9778378338833e-22
2.3459476267905e-21
4.9348401485237e-21
9.24383101363e-21
1.522575025889e-20
2.1777890398489e-20
2.7324589255204e-20
3.1433756691055e-20
3.4979487235024e-20
3.9122907008026e-20
4.4914242662217e-20
5.3162453652158e-20
6.3712117660085e-20
7.3831726009115e-20
7.8410906006135e-20
7.8286331309243e-20
7.6534061841902e-20
7.1614553358306e-20
6.2138351462803e-20
4.8769528486027e-20
3.3757929975149e-20
2.01114916279e-20
1.0098859891018e-20
4.2426258089893e-21
1.5204861270672e-21
4.8920617395693e-22
1.5068622734557e-22
4.6582951528383e-23
1.4724957262901e-23
4.7649307318978e-24
1.5730939704332e-24
5.2809651774517e-25
1.7960080193007e-25
6.1549759566573e-26
2.1110889727609e-26
7.1954904304239e-27
2.4227740329951e-27
8.0286518134396e-28
2.6149880259503e-28
8.3757908960901e-29
2.6422345262313e-29
8.2233630163737e-30
2.5286446165115e-30
7.6904029259043e-31
2.3150842997881e-31
6.9024049744229e-32
2.0392733898867e-32
5.9731251949389e-33
1.7353097753227e-33
5.0024948068427e-34
1.4315315098311e-34
4.0679498416086e-35
1.1482939555635e-35
3.2208027450328e-36
8.9790218263778e-37
2.4886388870114e-37
6.8587726601482e-38
1.880812081223e-38
5.1164627655526e-39
1.4176811436254e-39
3.1922671626048e-40
1.7641245562864e-40
0
0
0
0
3.2903990423315e-67
2.0216530626825e-53
2.8735146555192e-51
2.0310989950595e-49
9.502411012389e-48
3.3072697839341e-46
9.12733734903e-45
2.0796650186569e-43
4.0243613934853e-42
6.7454291727682e-41
9.9433140284551e-40
1.3044010926494e-38
1.5338419361897e-37
1.6302410872429e-36
1.5724407328843e-35
1.3797893833174e-34
1.1117874120092e-33
8.197960708456e-33
5.4909775682771e-32
3.3859753947148e-31
2.0680852039212e-30
1.4125424893009e-29
1.1259899850171e-28
9.7201469318431e-28
8.2450120573539e-27
6.4144179654715e-26
4.4245909730568e-25
2.6814311320374e-24
1.4315009723072e-23
6.7698024635351e-23
2.8496088147551e-22
1.0711722411094e-21
3.6028087085742e-21
1.0854127770739e-20
2.9283251527743e-20
7.0658571809959e-20
1.5218135004342e-19
2.9099073153077e-19
4.8827223390725e-19
7.0400306521657e-19
8.5545106133576e-19
8.9917289345228e-19
8.9408376701501e-19
8.6836857045491e-19
8.6143146492594e-19
8.7782664331353e-19
9.2648707995293e-19
1.0026767953472e-18
1.0599073043862e-18
1.0640518901318e-18
1.0477266177031e-18
9.9272510106762e-19
8.779491018427e-19
7.051685780792e-19
5.0149545219764e-19
3.0831122072975e-19
1.6060681985685e-19
7.034852169478e-20
2.6343054823769e-20
8.8297832786615e-21
2.8143596456156e-21
8.9485094913591e-22
2.902099431964e-22
9.6411058010646e-23
3.2744637369073e-23
1.1333383797474e-23
3.9799402788683e-24
1.4091096151628e-24
4.9904262385883e-25
1.7536747691418e-25
6.0741746364995e-26
2.0651203365358e-26
6.8817323345021e-27
2.2493370016463e-27
7.2250202223833e-28
2.2855489807698e-28
7.1337696689436e-29
2.2000330885416e-29
6.7104228395258e-30
2.0258114676593e-30
6.0567209158298e-31
1.7943190606653e-31
5.2699167117084e-32
1.5351599258428e-32
4.4374876872954e-33
1.2732854747418e-33
3.6280682533974e-34
1.0269007916255e-34
2.8881194603407e-35
8.0734333330409e-36
2.2436183695785e-36
6.2023823824764e-37
1.7005651596018e-37
4.74882334823e-38
1.0762672514545e-38
6.0094339474891e-39
0
0
0
0
0
2.8120008527414e-52
3.8389430087104e-50
2.6119597378794e-48
1.1793704924029e-46
3.9723390436829e-45
1.0637422434883e-43
2.3578971669046e-42
4.4496009506845e-41
7.2924027077195e-40
1.0541270020173e-38
1.3603792126716e-37
1.5795581938346e-36
1.6645022865266e-35
1.5986515718275e-34
1.4014472853126e-33
1.1321489605686e-32
8.4219842994829e-32
5.7223984581307e-31
3.5268189863528e-30
2.0615092091456e-29
1.3313171038668e-28
1.0642460605476e-27
9.7611191538986e-27
8.8841821538532e-26
7.4153448056041e-25
5.5007393476181e-24
3.5814286646124e-23
2.0364618764409e-22
1.014609707089e-21
4.4689694880321e-21
1.7550552015108e-20
6.1756353594288e-20
1.9497931291832e-19
5.517727563849e-19
1.3959188897603e-18
3.1458674948394e-18
6.2804034116537e-18
1.0982310565184e-17
1.6399433538746e-17
2.007863647918e-17
2.068757774739e-17
2.030923420712e-17
1.9029070953562e-17
1.6673760921301e-17
1.3876466088964e-17
1.2137790830406e-17
1.195347412292e-17
1.2000716590582e-17
1.1966361581585e-17
1.1734384539073e-17
1.1106537051933e-17
9.8986219415015e-18
8.0901385983559e-18
5.9034016250345e-18
3.7501077079428e-18
2.0312234982889e-18
9.295995368357e-19
3.642553007502e-19
1.2732217793298e-19
4.2036043908841e-20
1.3763605613578e-20
4.585679370819e-21
1.5660878909402e-21
5.4791331414458e-22
1.9576064062507e-22
7.1066808956047e-23
2.6024440074967e-23
9.5283116843751e-24
3.4568489515335e-24
1.2335940931408e-24
4.3098993383822e-25
1.4717487321446e-25
4.9158441228775e-26
1.6095655060193e-26
5.1796080286562e-27
1.6420224664735e-27
5.1373060481891e-28
1.5882541950206e-28
4.8565507458749e-29
1.4698200316227e-29
4.4054425299304e-30
1.3084060713977e-30
3.8525243446347e-31
1.1251322131421e-31
3.2606544226324e-32
9.3803568457843e-33
2.6797976014249e-33
7.6048993804223e-34
2.144498713358e-34
6.0103242693124e-35
1.6752897252971e-35
4.6302304138808e-36
1.3033226753113e-36
2.9730503794147e-37
1.6779965033417e-37
0
0
0
0
-4.1180460715745e-85
3.0350797522478e-51
4.0433443675109e-49
2.6857033811258e-47
1.1847905083435e-45
3.9024459409104e-44
1.0229346301514e-42
2.2216763407771e-41
4.1115990756696e-40
6.6154491910176e-39
9.3998939732994e-38
1.1942069001102e-36
1.368084430822e-35
1.4259098145884e-34
1.3591151912296e-33
1.1866477288084e-32
9.5653953534658e-32
7.1327625850347e-31
4.9038756151623e-30
3.0671030085491e-29
1.7542014264163e-28
1.0386506031079e-27
7.7356684768334e-27
7.1237518457271e-26
6.741839362896e-25
5.8821485469477e-24
4.585382437728e-23
3.1541284887806e-22
1.9199038893634e-21
1.0366957244407e-20
4.9326646352599e-20
2.0660526695251e-19
7.6668748945069e-19
2.5380895485401e-18
7.5219830675202e-18
1.9954756857506e-17
4.7263701223752e-17
9.9443323623931e-17
1.8398897181335e-16
2.9245536181157e-16
3.8072297823485e-16
4.0313695998104e-16
3.9654609803244e-16
3.7018194612124e-16
3.1497590556982e-16
2.3814897152698e-16
1.6952197645508e-16
1.309967356395e-16
1.1706244773492e-16
1.1185160426895e-16
1.0755987400737e-16
1.0124334959142e-16
9.0917448764411e-17
7.5696392851883e-17
5.677399175399e-17
3.7345523651174e-17
2.1074116054473e-17
1.0089125145305e-17
4.1376389353995e-18
1.5078520988577e-18
5.1571857690808e-19
1.7402188294166e-19
5.9637492315441e-20
2.0965517639802e-20
7.5651055460374e-21
2.7931427400021e-21
1.0492902609541e-21
3.9784039211937e-22
1.5076816685453e-22
5.6554525318469e-23
2.0829439947524e-23
7.4930820502588e-24
2.6272583168343e-24
8.983803520881e-25
3.0029125428714e-25
9.8413364028543e-26
3.1712962197371e-26
1.0071344496938e-26
3.1573732305618e-27
9.7825794898518e-28
2.9980159321728e-28
9.0941140815617e-29
2.7320708530809e-29
8.1333356213713e-30
2.4005662044192e-30
7.0279973622522e-31
2.0417758951192e-31
5.8885872561984e-32
1.6865253015277e-32
4.7983850477138e-33
1.356516293345e-33
3.8130474345484e-34
1.0625045706065e-34
3.0151551636471e-35
6.9227138155172e-36
3.9512628759579e-36
0
0
0
0
0
2.6510132424318e-50
3.4787346027233e-48
2.275430707525e-46
9.884603496553e-45
3.2064018764352e-43
8.2790735303813e-42
1.7715978526351e-40
3.2308538942642e-39
5.1238749333331e-38
7.1783116808328e-37
8.9950230051365e-36
1.0174036936394e-34
1.0480852113311e-33
9.8939117310623e-33
8.5820914150188e-32
6.8822418813247e-31
5.1194120861525e-30
3.5346465912533e-29
2.2462524592829e-28
1.2935916566705e-27
7.1356461952687e-27
4.6374258251646e-26
3.9471297609757e-25
3.7585944572351e-24
3.3962226087013e-23
2.7507981997558e-22
1.9898591385745e-21
1.2887905739792e-20
7.416884630879e-20
3.8357661166423e-19
1.7771605683424e-18
7.2853128046346e-18
2.6376620764436e-17
8.4854074326567e-17
2.4326094248627e-16
6.1927518929014e-16
1.3878205033466e-15
2.7024995404415e-15
4.4549189776454e-15
5.8992198279232e-15
6.2548241867713e-15
6.1355127948404e-15
5.6701221367835e-15
4.7038859075375e-15
3.3647511666884e-15
2.12256022734e-15
1.343026181044e-15
1.0091396617257e-15
8.8936000682857e-16
8.2867479663287e-16
7.7164395962018e-16
6.957000203534e-16
5.8937865749336e-16
4.5484560370948e-16
3.1049712518507e-16
1.8292313354469e-16
9.1710702667737e-17
3.9366902816281e-17
1.4951845642145e-17
5.2977212547224e-18
1.843381829721e-18
6.5040145295901e-19
2.3560699094359e-19
8.7769716811419e-20
3.351959088877e-20
1.3042738482729e-20
5.1253438668918e-21
2.0129143951547e-21
7.8191104206409e-22
2.9780585175453e-22
1.1055682677409e-22
3.9896583299343e-23
1.3997842450723e-23
4.785651854655e-24
1.5995869352989e-24
5.2449241401968e-25
1.6919696508621e-25
5.3815367107978e-26
1.6901654858902e-26
5.2469736591794e-27
1.6113142145974e-27
4.8980752459957e-28
1.4746945073418e-28
4.3999766582478e-29
1.3016445238322e-29
3.8197078250579e-30
1.1123616965083e-30
3.2159145940914e-31
9.2333207766021e-32
2.6334329806084e-32
7.4661595109528e-33
2.0978259481779e-33
6.0027511207117e-34
1.3871745258031e-34
8.0104896684679e-35
0
0
0
3.1706694181787e-78
8.13539040337e-64
1.9288226502284e-49
2.5079843893316e-47
1.6246341797755e-45
6.9865775362624e-44
2.2429413531328e-42
5.7306788757907e-41
1.2132680355321e-39
2.1887588671771e-38
3.4332663449989e-37
4.7564239586149e-36
5.8926810809441e-35
6.5907231679886e-34
6.7143808781563e-33
6.2730922672021e-32
5.3965524013519e-31
4.2967591959685e-30
3.1786999942036e-29
2.1905294689864e-28
1.40276512634e-27
8.2328208159264e-27
4.4335383251953e-26
2.507977301321e-25
1.7942109804956e-24
1.5938042386477e-23
1.4549645794427e-22
1.2221622392764e-21
9.3317143965475e-21
6.3687134223442e-20
3.8993799408568e-19
2.1521865421577e-18
1.0826667877795e-17
5.0170080550044e-17
2.1150188252999e-16
7.8804042115374e-16
2.5443755222462e-15
7.1143167699212e-15
1.7152978542041e-14
3.5204548659927e-14
5.9572684792572e-14
7.8313887787361e-14
8.1512330815134e-14
7.9113410441514e-14
7.103961166598e-14
5.5788947196936e-14
3.6813373047907e-14
2.0688393037204e-14
1.1189173182937e-14
7.2357439719715e-15
5.8888701591753e-15
5.333534518533e-15
4.9333311045782e-15
4.4763135918541e-15
3.8610177024322e-15
3.0649848273218e-15
2.1697510505342e-15
1.333656493198e-15
7.0036331303038e-16
3.1520193839185e-16
1.2516403206327e-16
4.6101523027199e-17
1.6583313015166e-17
6.032101519287e-18
2.2531628360599e-18
8.6704641660835e-19
3.4274311435168e-19
1.3825205725998e-19
5.6365339324354e-20
2.2970852406797e-20
9.2556876808673e-21
3.6531558771197e-21
1.4030743643738e-21
5.2254448525196e-22
1.8861479042381e-22
6.6110227306465e-23
2.257813280588e-23
7.5428770522877e-24
2.4738626897428e-24
7.9877315166338e-25
2.5440943207932e-25
8.0033568333321e-26
2.489056217427e-26
7.6582763893619e-27
2.332578164626e-27
7.0373149320444e-28
2.1041795358497e-28
6.2385378873927e-29
1.8348689895364e-29
5.3558378042295e-30
1.5520784179414e-30
4.4667250930501e-31
1.2775110459391e-31
3.6200787080944e-32
1.0446559812629e-32
2.4297622907352e-33
1.4202352851147e-33
0
0
0
1.1393616845242e-75
2.8339592340715e-62
1.193549842662e-48
1.5440311425478e-46
9.9447305636762e-45
4.2497316323489e-43
1.3550915920502e-41
3.4375850818733e-40
7.223731762295e-39
1.2930204665347e-37
2.0117531452105e-36
2.7633432489154e-35
3.3926887089048e-34
3.7593719442462e-33
3.7925883779384e-32
3.5082884492541e-31
2.9909354063227e-30
2.3614850347184e-29
1.7340069079342e-28
1.1881919855358e-27
7.60495362209e-27
4.5201240987941e-26
2.4579548374594e-25
1.2868486232668e-24
7.5444647369946e-24
5.582200199613e-23
4.763125949695e-22
4.0348965512141e-21
3.2285198611102e-20
2.332132467338e-19
1.5264989103556e-18
8.9331095172028e-18
4.8245400894915e-17
2.4573028846954e-16
1.1559181482191e-15
4.9447311604393e-15
1.9169181797794e-14
6.2181499869431e-14
1.6498551491586e-13
3.6065802182664e-13
6.2973504530754e-13
8.2369276436838e-13
8.4366135955457e-13
8.0850176829131e-13
7.0009255586618e-13
5.1281099384381e-13
3.0643723156632e-13
1.5259986937858e-13
7.237504704474e-14
4.1738020852129e-14
3.2034660247084e-14
2.8551801408158e-14
2.6428221950214e-14
2.4207201738864e-14
2.1244560986356e-14
1.7296654801874e-14
1.2657655807446e-14
8.1058586213125e-15
4.4666857746553e-15
2.1186895483508e-15
8.8598996973159e-16
3.4157879560946e-16
1.2762563039186e-16
4.798109266134e-17
1.8503856144931e-17
7.3614602829024e-18
3.0143716424798e-18
1.2615339266031e-18
5.3415177610278e-19
2.2618242324741e-19
9.4698440323489e-20
3.8820444391235e-20
1.5467360903789e-20
5.9630633990042e-21
2.2211557896779e-21
8.0036698532614e-22
2.7992125361694e-22
9.5435793525207e-23
3.1857298940095e-23
1.0449574739392e-23
3.3768131958124e-24
1.0768910526555e-24
3.3929163412531e-25
1.0569613733406e-25
3.2577926468136e-26
9.9411897396887e-27
3.0051088743582e-27
9.0038004379516e-28
2.6751613293611e-28
7.8854236144941e-29
2.3068916818735e-29
6.7002666844372e-30
1.9334895452347e-30
5.5264346535094e-31
1.6086005774623e-31
3.7656769358192e-32
2.2290141681299e-32
0
0
0
0
6.1459611592153e-61
6.377940538079e-48
8.2332227890837e-46
5.2879903245539e-44
2.2520252612545e-42
7.1523040842923e-41
1.8062843290251e-39
3.77710238399e-38
6.7246278235201e-37
1.0402035496133e-35
1.4198662156026e-34
1.7313241338489e-33
1.9043688053724e-32
1.9057346675183e-31
1.7475272360143e-30
1.4767740129363e-29
1.1558011147208e-28
8.4144900555683e-28
5.7204411600704e-27
3.6408586124801e-26
2.1686162147408e-25
1.1956874030158e-24
6.1541464328292e-24
3.1695675797255e-23
1.8640732297928e-22
1.319200128725e-21
1.0310109949666e-20
8.1899987436241e-20
6.1330982218015e-19
4.3051208672589e-18
2.7166264978465e-17
1.5778837761254e-16
8.601900774127e-16
4.3770439745107e-15
2.0763891101344e-14
8.5168425951794e-14
3.4037185094257e-13
1.2251516654837e-12
3.0603640771468e-12
5.286408892518e-12
6.3430751315616e-12
6.2793206320808e-12
5.8045654675708e-12
4.7415838202721e-12
3.2177984719664e-12
1.7961563475393e-12
8.5780027399148e-13
3.9796465045574e-13
2.1680963405014e-13
1.5420134789264e-13
1.320372537136e-13
1.2073343223845e-13
1.1070165590133e-13
9.8221628419377e-14
8.1669478671372e-14
6.1671856131302e-14
4.1172028228943e-14
2.3870934432517e-14
1.1987697027577e-14
5.3106001702887e-15
2.1568841675174e-15
8.4187001119184e-16
3.2850561982253e-16
1.3116504647221e-16
5.4048371239365e-17
2.2956981133295e-17
9.9795988448466e-18
4.3933676829676e-18
1.9355275286701e-18
8.4349238539041e-19
3.5993774687214e-19
1.4918777399391e-19