/*--------------------------------*- C++ -*----------------------------------*\
  =========                 |
  \\      /  F ield         | OpenFOAM: The Open Source CFD Toolbox
   \\    /   O peration     | Website:  https://openfoam.org
    \\  /    A nd           | Version:  7
     \\/     M anipulation  |
\*---------------------------------------------------------------------------*/
FoamFile
{
    version     2.0;
    format      ascii;
    class       surfaceScalarField;
    location    "3.9";
    object      alphaPhi0.water;
}
// * * * * * * * * * * * * * * * * * * * * * * * * * * * * * * * * * * * * * //

dimensions      [0 3 -1 0 0 0 0];

internalField   nonuniform List<scalar> 
11840
(
0
0
0
0
0
0
0
0
0
0
0
0
0
0
0
0
0
0
0
0
0
0
0
0
0
0
0
0
0
0
0
0
0
0
0
0
0
0
0
0
0
0
0
0
0
0
0
0
0
0
0
0
0
0
0
0
0
0
0
0
0
0
0
0
0
0
0
0
0
0
0
0
0
0
0
0
0
0
0
0
0
0
0
0
0
0
0
0
0
0
0
0
0
0
0
0
0
0
0
0
0
0
0
0
0
0
0
0
0
0
0
0
0
0
0
0
0
0
0
0
0
0
0
0
0
0
0
0
0
0
0
0
0
0
0
0
0
0
0
0
0
0
0
0
0
0
0
0
0
0
0
0
0
0
0
0
0
0
0
0
0
0
0
0
0
0
0
0
0
0
0
0
0
0
0
0
0
0
0
0
0
0
0
0
0
0
0
0
0
0
0
0
0
0
0
0
0
0
0
0
0
0
0
0
0
0
0
0
0
0
0
0
0
0
0
0
0
0
0
0
0
0
0
0
0
0
0
0
0
0
0
0
0
0
0
0
0
5.8455398053258e-220
2.9227699017201e-220
7.8498645618794e-219
3.9249322809397e-219
5.4254175292616e-218
2.7127087645725e-218
2.5675169358127e-217
1.2837584680169e-217
4.6686407277663e-218
2.1001759498681e-217
6.5988816301867e-198
0
1.1924942011888e-197
5.9527113239019e-198
2.1681712824543e-198
9.7567706700811e-198
3.9421296280435e-199
1.773958319269e-198
7.1675100152772e-200
3.2253784388329e-199
8.4683304506579e-197
0
9.0397361857807e-196
-4.2077266902979e-218
1.6435884197056e-196
7.3961477866279e-196
2.3262083251962e-196
5.8155208129904e-197
1.1204034317589e-195
0
4.7117715744576e-195
0
1.8288798068678e-194
0
3.3252360145368e-195
1.4963562052512e-194
6.0458836687575e-196
2.7206471660537e-195
2.1365118656108e-195
0
6.9024969854137e-195
0
1.2549994519117e-195
5.6474975335009e-195
3.9040892646264e-195
0
7.0983441175029e-196
3.1942548528762e-195
7.8916589167714e-196
3.9458294583857e-196
1.4348470757774e-196
6.4568118409938e-196
2.7246298037529e-196
0
6.0894586617904e-196
0
1.1071743021442e-196
4.9822843596458e-196
2.755804781354e-196
0
5.0105541479165e-197
2.2547493665623e-196
5.9075207451859e-197
2.8156978295802e-197
1.7570058770828e-196
0
3.1945561401505e-197
1.4375502630677e-196
7.6155787957997e-197
0
1.3846506901454e-197
6.2309281056543e-197
2.5175467093554e-198
1.1328960192099e-197
5.0519970155354e-198
0
9.1854491191559e-199
4.1334521036199e-198
1.6434563338663e-198
0
2.9881024252146e-199
1.3446460913447e-198
4.5867269105286e-199
2.0548819590334e-200
8.3395034745563e-200
3.7527765632469e-199
7.6701677368545e-200
3.8350838684272e-200
1.3945759523725e-200
6.2755917849381e-200
1.1347855701826e-200
5.673927850913e-201
9.3665229930433e-201
4.6832614965216e-201
1.703004242387e-201
7.6635189850051e-201
1.4156135999024e-201
7.0780679995118e-202
2.0359875106686e-201
0
1.6308448070773e-201
8.1542240353865e-202
2.1446108673064e-201
0
3.8993738697086e-202
1.7546724736939e-201
4.902761832325e-202
0
8.9141209462915e-203
4.0113494135577e-202
6.6915810927513e-203
3.3457905463756e-203
1.2166712050004e-203
5.474912802103e-203
1.463553775999e-203
0
1.6903955276527e-203
0
3.1013754146229e-204
1.3806581289844e-203
3.4005483371204e-204
0
6.2514402207505e-205
2.7774867175878e-204
6.6189767222578e-205
0
4.5347638524244e-205
2.2673819262122e-205
4.8293518604973e-205
0
5.2656391627719e-205
0
1.2706780789203e-205
4.1027826107511e-205
1.5131786134719e-205
0
1.1184043986088e-205
5.5920219930439e-206
1.3172729735564e-205
0
8.8576699547076e-206
5.6622601035089e-206
6.469521131843e-206
3.2347605659215e-206
7.3512093512449e-206
0
5.2445538866793e-206
2.6222769433397e-206
5.7550127772716e-206
0
4.0040110431007e-206
2.0036867354931e-206
4.1393905323821e-206
0
4.1159999750462e-206
0
2.7897136935787e-206
1.3948568467894e-206
2.6134614840409e-206
0
2.1030602333223e-206
0
0
0
0
0
0
0
0
0
0
0
0
0
0
0
0
0
0
0
0
0
0
0
0
0
0
0
0
0
0
0
0
0
0
0
0
0
0
8.0198064453377e-165
4.0099032226688e-165
4.4136650572331e-161
2.2068325286165e-161
4.0124095955297e-161
4.0125700104052e-162
1.5641274181118e-150
7.466172493784e-151
4.3241624462462e-135
0
1.1769934476305e-133
0
1.1769934476305e-133
0
6.2556568575065e-131
0
5.3031139801018e-132
5.7253454594963e-131
5.3031139801018e-132
0
8.5668216812781e-132
0
8.7347269565341e-132
3.9746437790428e-132
1.5326719164439e-131
7.6007731963789e-132
5.4894245230325e-133
1.4354661780199e-131
3.1355352283814e-133
2.6386987337638e-133
5.4333646258982e-133
2.0880001416616e-133
2.0930484152381e-132
0
4.2640595743679e-130
0
1.3328029823868e-131
4.1307792761292e-130
1.9390989539352e-131
0
2.559947874e-128
0
2.559947874e-128
0
4.1038447641685e-127
0
1.7359110946816e-126
0
3.5126870636664e-128
1.7008711561384e-126
1.6301949391702e-128
2.6223565231138e-128
1.4542974984684e-128
7.5305612461215e-129
3.333290716959e-128
1.3424256763994e-128
8.7819868838532e-128
3.178075197703e-128
4.7987041943411e-127
1.5008666331917e-127
3.3976992304281e-126
1.6988492540498e-126
4.2878672475892e-126
8.5757305466927e-127
7.8424727902336e-125
0
4.6990205702089e-125
3.6052754264153e-125
2.5933728211201e-125
1.6029307224898e-125
9.5766031770296e-126
9.571358380332e-126
4.2747204922402e-126
1.9236242215081e-125
5.5420633568132e-126
0
1.8964847592331e-127
5.2009242230692e-126
2.2759153351848e-127
0
1.3434010683962e-128
1.4825611473368e-127
9.7040624819936e-129
3.7299482019683e-129
8.118310409472e-129
0
9.5958733166947e-130
-6.032672701991e-129
4.7571154362522e-130
0
8.649300793186e-131
3.8921853569336e-130
1.5726001442157e-131
7.0767006489703e-131
1.991030410496e-131
0
6.1964837071175e-133
1.9290655734248e-131
6.1977365430335e-133
0
1.964768230348e-134
6.0012597199987e-133
1.9819456502809e-134
0
1.9819456502809e-134
0
4.6936880898193e-134
0
4.6938791939178e-134
0
8.5343258071234e-135
3.8404466132054e-134
7.7584780064759e-136
7.7584780064758e-135
5.2426198242503e-136
0
5.2424194648582e-136
0
1.9531425706883e-137
5.0471052077893e-136
1.9339127398304e-137
0
3.3144449652746e-138
1.602468243303e-137
2.9412286217369e-138
0
8.7929629925617e-140
2.8532989918112e-138
8.7923788800859e-140
0
7.6352475587516e-140
0
6.4314996094681e-140
0
5.136835440131e-140
0
1.5148593080528e-141
4.9853495093257e-140
1.5146524958878e-141
0
1.1833092033841e-141
0
1.8387527900531e-142
9.9943392437882e-142
1.4419756056274e-142
0
4.5524331215282e-144
1.3964512744122e-142
4.1538887593995e-144
0
3.5368575308616e-144
0
2.7337893312189e-144
0
1.9905605506045e-144
0
8.5443120101165e-146
2.4566390759287e-144
7.2047055467285e-146
0
0
0
0
0
0
0
0
0
0
0
0
0
0
0
0
0
0
0
0
0
0
0
0
0
0
0
0
0
0
0
0
0
0
0
0
-8.31924026525e-103
-4.159620132625e-103
-2.7094662136915e-101
-1.3547331068458e-101
-4.8641973556373e-100
-2.4320986778187e-100
-6.1634528233762e-99
-3.0817264116881e-99
-5.9866011560804e-98
-2.9933005780402e-98
-4.6805559202918e-97
-2.3402779601459e-97
4.736800451988e-89
2.5134558542324e-89
3.7082545942369e-88
2.1615720346399e-88
1.0269645973341e-86
5.0972884723834e-87
2.31442203196e-85
1.4469462661645e-85
3.9410404051463e-85
4.1309149655481e-85
2.4503678889935e-85
4.0665704956797e-85
1.171936188063e-85
1.2354138214723e-85
2.1286272519856e-86
9.5907346319167e-86
3.8741162950966e-87
1.7412156224761e-86
7.0439422869768e-88
3.1697220663989e-87
1.2807170810041e-88
5.7632252059727e-88
6.4195638416682e-89
6.3876069683725e-89
8.7837531745967e-81
5.0602550127507e-81
2.6647764576797e-79
1.1604851495908e-79
7.4237071091191e-79
6.7739947104022e-79
6.5913267441012e-78
3.7783237428538e-78
5.9863763272087e-77
3.3594695679317e-77
4.4715390067821e-76
2.5666692945741e-76
1.9398130796064e-75
1.7507240894888e-75
1.9715065332932e-75
2.1224247841e-75
7.5789516612323e-76
1.06121239205e-75
1.4567805388291e-76
6.1221716797953e-76
2.664018823004e-77
1.190378658842e-76
4.8429663274156e-78
2.1797221902877e-77
8.8066737948185e-79
3.9622989479339e-78
1.6012128559515e-79
7.205460938867e-79
2.9112961233722e-80
1.3100832436143e-79
2.6466337456942e-81
2.6466327488027e-80
1.0180208531763e-73
9.0556790788268e-74
2.0297743279744e-74
8.9539163838841e-74
3.6943192853803e-75
1.6603423994363e-74
3.3585895327675e-76
3.3584603321036e-75
6.1065264232137e-77
2.7479368904461e-76
2.1310293204149e-71
0
5.2187984373353e-72
2.3484592968009e-71
2.2236216209108e-71
1.1591269220898e-71
2.9600244927537e-72
1.7466385629982e-71
3.4592071885828e-73
2.6141037738954e-72
7.0906807339932e-71
4.6365076883593e-71
7.9887275076598e-72
7.1898547568937e-71
2.0534319520536e-70
4.6365076883593e-71
3.4943656840183e-70
4.5205949961503e-70
1.0145196180239e-69
7.5198359070577e-70
2.9356138242172e-69
1.9936983059945e-69
5.9366896659668e-69
4.7842963709257e-69
1.5111878556903e-68
1.0687150221668e-68
3.1200187160376e-68
2.535001801992e-68
6.1627637630146e-68
4.9556117077388e-68
1.4653544843956e-67
1.073815180624e-67
2.756291873054e-67
2.2462720623175e-67
5.9967562086797e-67
4.4803732919538e-67
1.085142962316e-66
9.1515642485927e-67
1.8449708936935e-66
1.5629479059334e-66
3.3805883761478e-66
2.6783279290749e-66
5.1591934631429e-66
4.6096784217952e-66
6.934486256202e-66
6.5034301276388e-66
7.9402330056496e-66
8.0934346377276e-66
8.1335271487174e-66
8.5107601979895e-66
8.2252896332833e-66
8.5297089069807e-66
8.6800399895099e-66
8.5147652235465e-66
8.8069774106146e-66
8.8069756907351e-66
8.1392896691744e-66
8.8451871591015e-66
7.5840557466723e-66
7.9072453006861e-66
5.929725827666e-66
7.0312968230741e-66
3.856711933541e-66
5.096021002776e-66
2.0411406433772e-66
2.8963216084471e-66
7.4647516552854e-67
1.3441340723667e-66
1.3585006521621e-67
4.4579612198308e-67
1.9196210476944e-68
9.0562442205581e-68
4.5523315083535e-69
1.2378667375993e-68
1.1789189701239e-69
2.9732812708335e-69
3.0483163341477e-70
7.5222168641836e-70
7.7272156115612e-71
1.9122983328004e-70
1.9416725560946e-71
4.8176832430813e-71
4.7503055504341e-72
1.2179090379048e-71
1.4073463861712e-72
2.8172276892891e-72
1.1491227153462e-72
0
0
0
0
0
0
0
0
0
0
0
0
0
0
0
0
0
0
4.4012377196228e-93
2.2160434124354e-93
3.9909792132168e-91
2.0526147051776e-91
2.1410055709023e-89
1.0952187521079e-89
9.1012315547697e-88
4.6907369879613e-88
2.426793297537e-86
1.2763328827792e-86
5.2332246841442e-85
2.7635949808457e-85
1.0336606703616e-83
5.4975915055519e-84
1.4968014765813e-82
8.10843271493e-83
2.789270957456e-81
1.4759077120523e-81
4.5320462406494e-80
2.4500068020068e-80
5.9840443019524e-79
3.2275993222995e-79
7.300367927969e-78
4.0036737660883e-78
7.4938680610157e-77
4.1485994696535e-77
8.8459959391847e-76
4.7982552492105e-76
8.5699781732954e-75
4.7782193381627e-75
7.3478491341302e-74
4.1486771951705e-74
5.4968676011328e-73
3.1305765565475e-73
4.2909227455636e-72
2.4605977996999e-72
3.1152821813935e-71
1.7556697814075e-71
3.5105695982668e-70
1.9664407119672e-70
2.4285502777669e-69
1.4264505684968e-69
1.2069171304549e-68
6.9982287921173e-69
8.1418619074674e-68
4.9703362419211e-68
2.988827713747e-67
1.8629487891828e-67
1.4634156211914e-66
9.1988312537048e-67
4.3993286867447e-66
2.9792343802321e-66
1.256683657289e-65
7.8338433902518e-66
7.0045859152478e-65
4.5673680857105e-65
1.4715111559134e-64
1.2762043050301e-64
6.9065597293364e-64
4.1932427165275e-64
1.7750008860567e-63
1.592216799609e-63
6.6631795609587e-63
3.2573595595054e-63
5.5206649492806e-62
3.5782337847702e-62
3.8744959190525e-61
2.1002676562781e-61
1.8175035229824e-60
1.2601605937669e-60
9.5367869983972e-60
5.6753899334093e-60
2.2666072100329e-59
1.5433077889096e-59
3.7911469208291e-59
3.8632478844962e-59
3.1919037832939e-59
2.5489470578119e-59
6.0385155319417e-59
3.5048022044914e-59
2.8004225701145e-58
2.357776028476e-58
2.3685788108033e-58
5.0978941156238e-59
1.3287109010185e-57
1.4274103523747e-57
1.0964707933773e-57
2.322401076412e-58
1.4526419346787e-56
6.9331359972485e-57
6.5420512593836e-56
6.1174729387486e-56
1.1047860624636e-56
5.4544707845476e-56
3.0352235444739e-55
1.5008200276397e-55
2.972109237258e-56
2.6425100503658e-55
2.3440085107566e-55
1.1745548042397e-55
3.7667570329113e-56
1.9673328074654e-55
3.7667570329113e-56
0
2.4933751427395e-55
2.0880974297595e-55
5.0479368322059e-56
1.9885814595189e-55
5.7683814712445e-55
4.1761948595191e-55
1.0783435022448e-55
4.6900379689997e-55
2.0269203145841e-56
8.7565147078642e-56
1.2010761982896e-55
0
2.1908802974621e-56
9.8198816854355e-56
5.3421271383394e-56
0
9.0655748885743e-57
4.435569649489e-56
9.0655748886956e-57
0
1.9979728565043e-55
0
1.9979728565104e-55
0
2.2778003300823e-55
0
3.7594497388699e-56
1.9018553562196e-55
6.8632264045543e-57
3.0731270987872e-56
1.202680962831e-56
0
1.201957357897e-56
0
3.9749547421446e-58
1.1622078138461e-56
3.9750848227001e-58
0
1.9690993764714e-59
3.7781750634483e-58
1.9718025146858e-59
0
2.1104385144239e-59
0
2.2643922785276e-59
0
2.2643940363364e-59
0
3.488663600991e-59
0
3.4936815746339e-59
0
6.7503252425748e-61
3.4261791578694e-59
7.0426850011023e-61
0
7.7409064884573e-61
0
8.6993498382311e-62
6.8709753576526e-61
8.6993562719627e-62
0
9.7917152831231e-62
0
6.934974276354e-62
4.9784122222889e-62
4.978651572647e-62
2.4892061111444e-62
2.3561109606703e-62
2.4892061111444e-62
1.6432592774695e-62
6.2230152778611e-63
7.4727449060869e-63
6.6119537327276e-63
4.1503560755087e-63
3.3059768663637e-63
3.5976807075135e-63
0
0
0
0
0
0
0
0
0
0
0
0
0
0
6.5819896593762e-84
3.2933299383647e-84
1.1583973756188e-81
5.82306685827e-82
1.0039643769337e-79
5.0731394663165e-80
5.7254597015348e-78
2.9092063810319e-78
2.4208481771442e-76
1.2371605097062e-76
8.1068526783283e-75
4.1673845067106e-75
2.2421996856534e-73
1.1595323005149e-73
5.2705970477405e-72
2.7422699466999e-72
1.0744829882094e-70
5.6253143858657e-71
1.9278748940395e-69
1.0157611429994e-69
3.0784670257967e-68
1.6326328572123e-68
4.4148226354166e-67
2.3570890733633e-67
5.7328726352e-66
3.0816362149043e-66
6.7956576155181e-65
3.6776656836704e-65
7.4162301243706e-64
4.039906402438e-64
7.518843611756e-63
4.1212400097664e-63
7.1478266750245e-62
3.9402383586005e-62
6.4285134273383e-61
3.5619955327863e-61
5.5110004115904e-60
3.0679085886865e-60
4.5273792422123e-59
2.5314101142293e-59
3.5739984790283e-58
2.0070237485472e-58
2.7123088473507e-57
1.5300251653315e-57
1.9764642200833e-56
1.1203733588949e-56
1.380243413498e-55
7.8657224651982e-56
9.2182783019131e-55
5.2838417334605e-55
5.8778554386787e-54
3.3902977220675e-54
3.5737258104852e-53
2.0751279906777e-53
2.070285951284e-52
1.2106677845195e-52
1.1423643084327e-51
6.7300411494564e-52
6.0040671803132e-51
3.5645801251242e-51
3.0064704130422e-50
1.7992354319963e-50
1.4348645582025e-49
8.6580304441901e-50
6.53012309524e-49
3.9738267982406e-49
2.8354665870025e-48
1.7405615318885e-48
1.1753444305271e-47
7.2795206929046e-48
4.6535785100327e-47
2.9086538385176e-47
1.7608681179453e-46
1.1109486465547e-46
6.3710345648802e-46
4.0582161102658e-46
2.2052020200466e-45
1.4184998677742e-45
7.3053216470836e-45
4.7465261129193e-45
2.3172081216958e-44
1.521106778005e-44
7.0403275772552e-44
4.6703670253268e-44
2.0496328760386e-43
1.3743775080361e-43
5.7194575478094e-43
3.8776441222632e-43
1.5302327650778e-42
1.0492235004685e-42
3.9264675122754e-42
2.7234972990058e-42
9.6649011694872e-42
6.7835396322813e-42
2.2826796087139e-41
1.621660418015e-41
5.1741416732448e-41
3.7216352575017e-41
1.1258027981903e-40
8.2009857258316e-41
2.3517392882749e-40
1.7355358828009e-40
4.7170613406555e-40
3.5277400921157e-40
9.0851531100429e-40
6.8879472588728e-40
1.6801533215682e-39
1.2918429042834e-39
2.9828526775467e-39
2.3269937245989e-39
5.0815595086987e-39
4.0244252404935e-39
8.3010826606926e-39
6.6785728779142e-39
1.2988791416418e-38
1.0625241894079e-38
1.9435444191141e-38
1.6183858878513e-38
2.774283180722e-38
2.3553226688783e-38
3.7622032561234e-38
3.2650822980854e-38
4.8048092187436e-38
4.2863190425873e-38
5.6677212238748e-38
5.2590054482278e-38
6.0576299589516e-38
5.8960811458434e-38
6.0952605825623e-38
6.0700091402119e-38
6.05758665229e-38
6.0485341834476e-38
5.8533468529806e-38
5.9215047758442e-38
5.3877873904834e-38
5.5825570268211e-38
4.6489687979931e-38
4.9813405577091e-38
3.6960830820051e-38
4.1371300261044e-38
2.6611779061529e-38
3.1466215871964e-38
1.7016118925489e-38
2.1537181472757e-38
9.4602786661017e-39
1.3014545935411e-38
4.4881126757316e-39
6.8134478559087e-39
1.8049434685146e-39
3.0514474076013e-39
6.2632969380765e-40
1.1730221711798e-39
1.9605476651108e-40
3.9748759129904e-40
5.8392109572923e-41
1.2407995775423e-40
1.7192367738992e-41
3.7257893086463e-41
5.0830081725994e-42
1.1064183313652e-41
1.5110801915767e-42
3.286502810268e-42
4.5030001285462e-43
9.7829182679494e-43
1.3418915161863e-43
2.9146618215852e-43
3.9960542734922e-44
8.6819669806971e-44
1.1896776117241e-44
2.5851388488768e-44
3.5436027349106e-45
7.6981359323724e-45
1.0566635641604e-45
2.2940112009419e-45
3.1555074830813e-46
6.8434827096101e-46
9.4280151464982e-47
2.0450607896859e-46
2.8346776807424e-47
6.0986372210877e-47
8.1968750507429e-48
1.8614153344357e-47
3.1017110333465e-48
4.7565029166802e-48
2.8330263464108e-48
0
0
0
0
0
0
0
0
0
0
0
0
5.8251193079641e-84
2.9092005827074e-84
1.5492648580762e-81
7.7364589730201e-82
1.8192756019627e-79
9.1063323471292e-80
1.3238997182622e-77
6.6509740444009e-78
6.871404005432e-76
3.4673372390557e-76
2.7476452657361e-74
1.3933145115838e-74
8.888915403382e-73
4.5312976866212e-73
2.4061543177507e-71
1.2333628363192e-71
5.5824602898217e-70
2.8779114605204e-70
1.1298404283079e-68
5.8592057453544e-69
2.0216938173541e-67
1.0548503726359e-67
3.2324469929467e-66
1.6972390744716e-66
4.6583697554941e-65
2.4618487236028e-65
6.0950745890209e-64
3.2426077529965e-64
7.2870414692334e-63
3.9030587494248e-63
8.0105569907104e-62
4.3197587724215e-62
8.1514170816696e-61
4.4249232940799e-61
7.7361259373909e-60
4.2259255799114e-60
6.9030183390891e-59
3.792670699144e-59
5.8373683675197e-58
3.2239489140514e-58
4.7100472117123e-57
2.6136581136167e-57
3.6444885854088e-56
2.0313109861909e-56
2.7120804651038e-55
1.5181681247966e-55
1.9428285565632e-54
1.0924027188106e-54
1.3391164028479e-53
7.5652348848159e-54
8.8688393964747e-53
5.0361348034287e-53
5.6342906404545e-52
3.2172933341281e-52
3.4276790429478e-51
1.9691294186493e-51
1.9939495661139e-50
1.1529479605184e-50
1.1078743144727e-49
6.4505527431889e-50
5.8747868656072e-49
3.4457729332508e-49
2.9718314108346e-48
1.7565915226028e-48
1.4338768554197e-47
8.5440079852028e-48
6.5989526956371e-47
3.9652208846844e-47
2.8973676902365e-46
1.7561752936607e-46
1.2140493802648e-45
7.4249486004069e-46
4.8567228645794e-45
2.997834482286e-45
1.8557212537545e-44
1.156361622706e-44
6.7755008754565e-44
4.2632877043918e-44
2.3649843686666e-43
1.5029929105933e-43
7.8953346831828e-43
5.0690425892709e-43
2.5220956524224e-42
1.6362278130865e-42
7.7124062377424e-42
5.05706097632e-42
2.2585989772884e-41
1.497174013171e-41
6.3370536958785e-41
4.2476055902501e-41
1.7041442739641e-40
1.1552775774291e-40
4.3939893205062e-40
3.013448098271e-40
1.0866650650915e-39
7.5410281212366e-40
2.5783926641955e-39
1.8110305341087e-39
5.8712114530271e-39
4.1751031845136e-39
1.2832484894347e-38
9.241575244115e-39
2.6924236727281e-38
1.9643634203713e-38
5.4229399367436e-38
4.0097743013201e-38
1.0484730646696e-37
7.860127949049e-38
1.945557704869e-37
1.4794572495284e-37
3.4640376836093e-37
2.673294487502e-37
5.9155975124057e-37
4.6357205031738e-37
9.6833228601516e-37
7.7106199816263e-37
1.5179336515076e-36
1.2291942189801e-36
2.2755117092766e-36
1.8758826446633e-36
3.2552085649876e-36
2.7358718747901e-36
4.4275074841861e-36
3.8027712300535e-36
5.6809525706839e-36
5.0113305004176e-36
6.7559069694211e-36
6.1871712012966e-36
7.2935675591033e-36
7.0052918411688e-36
7.3633415489337e-36
7.2643816742351e-36
7.333022082365e-36
7.2546169992187e-36
7.1155428860084e-36
7.123542745893e-36
6.6036525515552e-36
6.7589921958165e-36
5.7582775001931e-36
6.0857882718433e-36
4.6417164626129e-36
5.1154295571646e-36
3.401766873655e-36
3.9510889595759e-36
2.2250863345793e-36
2.7578826438599e-36
1.2732499629492e-36
1.7084486671283e-36
6.2580629750415e-37
9.2241387105702e-37
2.6197507346178e-37
4.2837705399799e-37
9.4602938377333e-38
1.7119608906758e-37
3.0619573677352e-38
6.0158873819624e-38
9.3431542185208e-39
1.9342558340301e-38
2.798094192898e-39
5.93717552514e-39
8.385715834593e-40
1.7927478738086e-39
2.5250892872684e-40
5.401005990053e-40
7.6249428993655e-41
1.6295491372231e-40
2.3039371719652e-41
4.921914230395e-41
6.9604657151978e-42
1.4869775625038e-41
2.1031979768937e-42
4.4926950957532e-42
6.3607265031198e-43
1.3580804813291e-42
1.926452338349e-43
4.1097713689955e-43
5.8448121845176e-44
1.2454374730113e-43
1.7743691275497e-44
3.7817065617447e-44
5.4217603199054e-45
1.1457739995471e-44
1.5904833619759e-45
3.557159482886e-45
6.1579540061766e-46
9.1526717978367e-46
5.6452358128665e-46
0
0
0
0
0
0
0
0
0
0
2.731415989825e-84
1.359985486488e-84
9.6071918762326e-82
4.7746165307577e-82
1.4660015010928e-79
7.2855053182607e-80
1.3377913574755e-77
6.6590299739405e-78
8.4575691065624e-76
4.2215547419228e-76
4.0267922869233e-74
2.0172254527064e-74
1.5229980533747e-72
7.6617561282081e-73
4.7489844021145e-71
2.4002683398712e-71
1.2543974872732e-69
6.3720077732156e-70
2.8639204334616e-68
1.4625514712018e-68
5.738924231348e-67
2.9471518579828e-67
1.0216159733995e-65
5.2769762339581e-66
1.6313861467236e-64
8.4776881627293e-65
2.3556076336935e-63
1.2317980694159e-63
3.0962166935903e-62
1.6295610636143e-62
3.7261611272928e-61
1.974152611593e-61
4.1273160261138e-60
2.2015294157165e-60
4.2289178785726e-59
2.2711350643377e-59
4.0296152474814e-58
2.1786372427539e-58
3.5932330622343e-57
1.9551012307527e-57
3.0205855624178e-56
1.6530975828955e-56
2.4125879580373e-55
1.3271838556398e-55
1.8436717342136e-54
1.0188975901144e-54
1.3544310777735e-53
7.517598837241e-54
9.5848171738038e-53
5.3432220809426e-53
6.5323154825495e-52
3.6586868000445e-52
4.2812104260182e-51
2.410307060263e-51
2.6934127347812e-50
1.5250541138775e-50
1.6240514467934e-49
9.2529148108965e-50
9.3749265852075e-49
5.3770364041366e-49
5.1771895019099e-48
2.9905066868518e-48
2.73397249743e-47
1.5910463737095e-47
1.3802706360119e-46
8.0954462887403e-47
6.6610880800252e-46
3.938680328248e-46
3.0725670475496e-45
1.8321928424275e-45
1.3545997982631e-44
8.1484742963754e-45
5.7077197444465e-44
3.4645898874603e-44
2.2985547489932e-43
1.4082971984762e-43
8.8470179395455e-43
5.4728228930594e-43
3.2546894273797e-42
2.0333978927495e-42
1.1445265324511e-41
7.22368448619e-42
3.8476220690458e-41
2.4539470207889e-41
1.2367190630895e-40
7.9726130139473e-41
3.8013846679119e-40
2.4776569377681e-40
1.1176527390154e-39
7.3668676389507e-40
3.1440971825073e-39
2.0962692482888e-39
8.4658916342839e-39
5.7106568602864e-39
2.182939444063e-38
1.4900122614783e-38
5.3932987043243e-38
3.7255668285656e-38
1.2776515628134e-37
8.9325528404409e-38
2.9044414496188e-37
2.055266663698e-37
6.3413556858998e-37
4.5418669246826e-37
1.3309024723101e-36
9.6482653641136e-37
2.6870746022496e-36
1.9717730331761e-36
5.2215117886617e-36
3.8789693501558e-36
9.7665078613778e-36
7.3475582867034e-36
1.7576887896464e-35
1.3398708076805e-35
3.0410240029399e-35
2.3506800786452e-35
5.0511414221327e-35
3.9632482754215e-35
8.0407571651824e-35
6.4116880434016e-35
1.2241540127305e-34
9.9343314756549e-35
1.7778417999061e-34
1.4708311313435e-34
2.4540182577484e-34
2.0746858894267e-34
3.1973464808556e-34
2.7746283776435e-34
3.871746237171e-34
3.4821656357216e-34
4.2601056182702e-34
4.0193105258889e-34
4.3311225417634e-34
4.2276139826529e-34
4.3279915306363e-34
4.2389972634358e-34
4.2204527012513e-34
4.1778881089111e-34
3.9575221928065e-34
3.9961782816897e-34
3.4936665979423e-34
3.6374110461963e-34
2.8599418569807e-34
3.0996925640448e-34
2.1357130436418e-34
2.4346134249766e-34
1.4295926804752e-34
1.734399956135e-34
8.4163806593699e-35
1.1015436444193e-34
4.2808991503565e-35
6.1297042333885e-35
1.8629634801285e-35
2.9486654167681e-35
6.9962928939533e-36
1.2238893082084e-35
2.3426444758243e-36
4.4592296218701e-36
7.3325904891074e-37
1.4778003828203e-36
2.2361615175569e-37
4.6417738100194e-37
6.7975086610269e-38
1.4263520081025e-37
2.0737596299316e-38
4.3604309520672e-38
6.3458414568477e-39
1.3337374696613e-38
1.9443112098255e-39
4.0843781433752e-39
5.9600285692498e-40
1.2516559544376e-39
1.8282907946856e-40
3.8380259011405e-40
5.6161890554715e-41
1.1780734349753e-40
1.7284241343632e-41
3.6217541836421e-41
5.3304481617514e-42
1.1154529663675e-41
1.6450755570334e-42
3.4433348256116e-42
5.1111584115168e-43
1.0604565501149e-42
1.5215430086274e-43
3.3507731800876e-43
6.0355714416176e-44
8.6759821750553e-44
5.5532595199558e-44
0
0
0
0
0
0
0
0
0
0
2.4369752191993e-82
1.2002836754785e-82
6.201127375857e-80
3.0553380303422e-80
7.6271594112725e-78
3.7617944926645e-78
6.0264928911923e-76
2.9778356682865e-76
3.4506390626264e-74
1.7094918024544e-74
1.5324032641437e-72
7.6164620843021e-73
5.5152400863657e-71
2.7516405671919e-71
1.659670417045e-69
8.3155020504623e-70
4.2737347528168e-68
2.1511719586302e-68
9.5837432914304e-67
4.8478027903187e-67
1.8972581886213e-65
9.647308389357e-66
3.3522014513294e-64
1.7139479338373e-64
5.3334096349526e-63
2.742660117047e-63
7.6968051089812e-62
3.9818324439402e-62
1.0137661036491e-60
5.2773251493223e-61
1.2252770098596e-59
6.4195555043292e-60
1.3653366845205e-58
7.2009385310267e-59
1.4085049325986e-57
7.4792095210097e-58
1.3506256701761e-56
7.2212469295018e-57
1.2092364601207e-55
6.5091759679935e-56
1.0164615849459e-54
5.5066773127408e-55
8.0776147787165e-54
4.401408428207e-54
6.1168363105198e-53
3.3496642080275e-53
4.4475813291296e-52
2.4460147164285e-52
3.1226673556113e-51
1.724137336599e-51
2.1228522083074e-50
1.1768979693273e-50
1.3974796530217e-49
7.7836176387818e-50
8.8952707791977e-49
4.9814358126883e-49
5.4637868657048e-48
3.0789622530439e-48
3.2323010760896e-47
1.834231019051e-47
1.838518184719e-46
1.0512397050264e-46
1.0038954663404e-45
5.7866067531091e-46
5.254721841892e-45
3.054650911645e-45
2.6331653945799e-44
1.5442557011175e-44
1.2617240381029e-43
7.4674950916667e-44
5.7753257747122e-43
3.4505632018887e-43
2.5232758002771e-42
1.5223387904835e-42
1.0516160976281e-41
6.4086458900167e-42
4.1787772737986e-41
2.5730681753687e-41
1.5826651568021e-40
9.8495779767607e-41
5.7116741567078e-40
3.5938216822148e-40
1.963739183546e-39
1.2496413187168e-39
6.4309418185362e-39
4.1403370781141e-39
2.0056921649655e-38
1.3069046082519e-38
5.9563559910552e-38
3.9295741137757e-38
1.6840339839156e-37
1.1253147806527e-37
4.5321928853683e-37
3.0687805857024e-37
1.1609369999546e-36
7.9684254276444e-37
2.8304502460494e-36
1.9700763824653e-36
6.5696319396482e-36
4.6382912137893e-36
1.4524433832606e-35
1.0403436396916e-35
3.0617584562064e-35
2.2248332689853e-35
6.1640788980366e-35
4.5427657544342e-35
1.1879910560311e-34
8.8743674046756e-35
2.1984401168366e-34
1.6631624363474e-34
3.9196318302936e-34
2.9999284925124e-34
6.754746757008e-34
5.2250638552572e-34
1.1278105731898e-33
8.8116399525288e-34
1.8259661558929e-33
1.4409517980196e-33
2.8636341058439e-33
2.2843837587273e-33
4.3375571051266e-33
3.5036940266761e-33
6.3177206994803e-33
5.1802014127392e-33
8.7979721456313e-33
7.3469118711039e-33
1.1619902789739e-32
9.9309861351973e-33
1.434270481047e-32
1.2660790518586e-32
1.6153305909843e-32
1.4931173796618e-32
1.6627763562815e-32
1.6013908773011e-32
1.6644808548004e-32
1.6148321555506e-32
1.6340383020531e-32
1.5983770413751e-32
1.5478077660593e-32
1.5412772583991e-32
1.3846560398062e-32
1.419183163485e-32
1.1520306936076e-32
1.2271088126892e-32
8.7707907275252e-33
9.8076461635618e-33
6.0088364146799e-33
7.1336136057381e-33
3.6379443279438e-33
4.6446389735145e-33
1.9130117152587e-33
2.6621826699645e-33
8.6441442880184e-34
1.3251964383028e-33
3.3737340642534e-34
5.7076038469584e-34
1.1690884114532e-34
2.1556427351078e-34
3.7578645139629e-35
7.3676058250719e-35
1.1683169058973e-35
2.370431051804e-35
3.6049400944677e-36
7.4192321754289e-36
1.1146398834631e-36
2.3028119550906e-36
3.4570731852113e-37
7.1430604877197e-37
1.0742100254227e-37
2.21826406198e-37
3.341793528968e-38
6.8967620580606e-38
1.0410529892607e-38
2.1468647969057e-38
3.249596664163e-39
6.6938507645799e-39
1.016776401718e-39
2.0916186128462e-39
3.1892985432655e-40
6.5506223486419e-40
1.0012085125958e-40
2.0569900686288e-40
3.1648245917128e-41
6.443125603031e-41
9.5638492328886e-42
2.0734151885401e-41
3.8930785909722e-42
5.3980028869865e-42
3.5947847135732e-42
0
0
0
0
0
0
0
0
6.6226619179367e-93
3.2825243914472e-93
1.0574115289188e-80
5.1481973884442e-81
2.3589351595019e-78
1.1504490202535e-78
2.6023502368456e-76
1.2716535256269e-76
1.8858662300498e-74
9.237203826889e-75
1.0088111113173e-72
4.9551226083846e-73
4.2480174924549e-71
2.0933006414649e-71
1.4669022400962e-69
7.2547231152513e-70
4.2751062584401e-68
2.1227432903814e-68
1.0741305508902e-66
5.3565079501774e-67
2.3643621479926e-65
1.1845294930586e-65
4.6175336476057e-64
2.324744140358e-64
8.0826365436681e-63
4.0904624937564e-63
1.2785522893532e-61
6.5059320609235e-62
1.8401244836323e-60
9.417253385885e-61
2.4234826166855e-59
1.2477042876699e-59
2.9353744386391e-58
1.5206583055446e-58
3.2839806235969e-57
1.7122252204538e-57
3.4064931658325e-56
1.7879326506972e-56
3.2874879895025e-55
1.7372910128401e-55
2.961191753333e-54
1.5757521849454e-54
2.4984844865882e-53
1.3386769476537e-53
1.9844456009412e-52
1.070119737512e-52
1.4944749712789e-51
8.1041353088787e-52
1.0774697540431e-50
5.8687320678295e-51
7.5169466644916e-50
4.1079524186631e-50
5.1224851999434e-49
2.8071256963949e-49
3.4301478392288e-48
1.8853054385617e-48
2.2609857694201e-47
1.2474680619382e-47
1.4641207886023e-46
8.1185327769608e-47
9.271538944251e-46
5.1727748300618e-46
5.7073428404594e-45
3.2070867701487e-45
3.3942400692889e-44
1.9225613391795e-44
1.9393571474181e-43
1.1080171198188e-43
1.0597317085202e-42
6.1104965249554e-43
5.5187664276375e-42
3.2130749266716e-42
2.7321322514287e-41
1.6068019508044e-41
1.2835781954626e-40
7.6284129200025e-41
5.7162502078119e-40
3.4342844518079e-40
2.4113665057423e-39
1.4650792186962e-39
9.6316359699812e-39
5.9201481361224e-39
3.6418568521557e-38
2.2654657925804e-38
1.3033980700142e-37
8.208993420903e-38