/*--------------------------------*- C++ -*----------------------------------*\
  =========                 |
  \\      /  F ield         | OpenFOAM: The Open Source CFD Toolbox
   \\    /   O peration     | Website:  https://openfoam.org
    \\  /    A nd           | Version:  7
     \\/     M anipulation  |
\*---------------------------------------------------------------------------*/
FoamFile
{
    version     2.0;
    format      ascii;
    class       volScalarField;
    location    "3.9";
    object      alpha.water;
}
// * * * * * * * * * * * * * * * * * * * * * * * * * * * * * * * * * * * * * //

dimensions      [0 0 0 0 0 0 0];

internalField   nonuniform List<scalar> 
6000
(
0
0
0
0
0
0
0
0
0
0
0
0
0
0
0
0
0
0
0
0
0
0
0
0
0
0
0
0
0
0
0
0
0
0
0
0
0
0
0
0
0
0
0
0
0
0
0
0
0
0
0
0
0
0
0
0
0
0
0
0
0
0
0
0
0
0
0
0
0
0
0
0
0
0
0
0
0
0
0
0
0
0
0
0
0
0
0
0
0
0
0
0
0
0
0
0
0
0
0
0
0
0
0
0
0
0
0
0
0
0
0
0
0
0
0
0
0
0
0
1.1691079611123e-217
1.5699729123759e-216
1.0850835058552e-215
5.13503387157e-215
3.5618881335467e-219
1.484748366792e-195
2.3854763864797e-195
5.0481670447552e-204
6.6752623234819e-205
5.3402091149726e-204
1.905374351398e-194
2.0339406418007e-193
5.1023699384079e-202
4.9431926910418e-194
2.5209077214576e-193
1.060148604253e-192
4.1149795654526e-192
6.4518073503379e-202
2.4244355771688e-200
4.8071516976243e-193
1.5530618217181e-192
5.0729518209112e-204
8.7842008454095e-193
3.6014278631898e-207
1.5783317833543e-193
2.1051319219464e-206
6.1304170584441e-194
1.3701281989028e-193
1.4809655388787e-206
6.2005607580465e-194
2.6280689812465e-208
1.1884072761878e-194
3.9532632234362e-194
3.6500958072868e-210
1.7135052290549e-194
8.8210648676097e-210
5.8966012680485e-210
1.1366993284955e-195
1.0037763470039e-209
3.6977767511991e-196
9.370480330269e-209
1.0217391450738e-196
1.5169474990897e-207
1.5340335473709e-197
3.6897721852301e-208
2.2695711403652e-198
1.8733045986087e-198
5.2868213301326e-207
2.8312271998047e-199
4.5809718990044e-199
3.2616896141546e-199
4.8253744514393e-199
2.2883837482879e-204
1.1031214122731e-199
2.5061367432808e-206
1.3383162185503e-200
5.3810199235346e-206
3.2929959959979e-201
3.8033899372185e-201
7.4804037979328e-204
7.6512337585209e-202
1.783069087493e-204
1.489269762508e-202
9.0695277048489e-203
1.0866041686119e-202
1.1847688116237e-202
8.0763437219512e-204
3.4046518803117e-203
2.2368087972175e-203
2.963864190502e-203
1.7098627346338e-203
1.2939042263686e-203
1.6540221040301e-203
1.0489107773359e-203
1.2948778748861e-203
8.0071814792301e-204
9.3136286978598e-204
9.260999943854e-204
5.5794273871575e-204
5.8802883390921e-204
8.4117442067334e-204
0
0
0
0
0
0
0
0
0
0
0
0
0
0
0
0
0
0
0
1.6039612890675e-162
8.8273301144661e-159
8.0207437730617e-164
2.9510225378521e-148
4.219735629578e-133
2.6625911748566e-131
8.7793245094271e-242
1.3064982333855e-128
0
6.406665904586e-146
1.7718632482554e-129
1.7085014082945e-129
3.0614524796804e-129
2.115574605724e-131
5.3053631299352e-132
6.6523864193925e-131
2.5472634305453e-130
8.9056081829078e-128
-1.2993519287738e-144
1.2897691246777e-129
6.0897149795807e-126
0
8.6063704808542e-125
3.6382801804485e-124
-1.9061443371154e-128
7.4300356236794e-127
9.8557843425349e-127
4.6608545666945e-126
1.1890785210648e-125
5.226527771736e-125
6.80972598787e-124
2.1576637833548e-124
3.7063183128751e-122
1.4974533889294e-122
4.9660843056906e-123
3.9983411511905e-123
6.9719656989797e-124
9.4357720578133e-124
2.858288212932e-124
4.1816121229975e-126
-8.2351275260302e-128
0
1.797843351084e-126
9.133099210656e-127
3.5077072526509e-128
-2.0501330894675e-144
0
4.1577399748593e-129
-6.5568221367247e-146
7.5947609795608e-134
0
5.6094860293503e-134
0
6.9420575830169e-131
5.3734316507378e-135
0
0
7.2759725656751e-133
5.7946949442681e-137
-2.0009833180923e-150
5.6203907281874e-136
0
6.0410974078622e-136
0
1.0002076140353e-140
1.6287957180981e-137
1.5062598234035e-137
1.1473771605352e-137
0
1.8068324062582e-142
2.5703985325686e-139
0
2.8548251085143e-140
0
5.916234898987e-142
7.7103735634873e-142
6.7337239046807e-142
4.3411409098601e-142
-7.4542437422734e-159
2.9346193995483e-144
2.40610001993e-143
0
0
0
0
0
0
0
0
0
0
0
0
0
0
0
0
0
-1.66384805305e-100
-5.418932427383e-99
-9.7283947112746e-98
-1.2326905646752e-96
-1.1973202312161e-95
-9.3611118405836e-95
4.9943632810579e-87
3.7662090176306e-86
9.8588718932505e-85
2.6829831116936e-83
7.5842379961515e-83
6.5256017669453e-83
1.4504910406488e-83
-2.4961993928747e-93
-7.712177087568e-98
0
-4.3413256825881e-163
7.2835358703128e-156
1.2291567095659e-78
3.3804251723148e-77
8.2859509554793e-77
7.0935163596447e-76
6.3084427322141e-75
4.7509171372934e-74
3.3318896145565e-73
3.7601908144141e-73
1.2441658932081e-73
-4.8749077714438e-81
-2.1483216512209e-83
-4.8449574117887e-86
-2.223719364981e-89
0
-4.4647944971965e-101
-9.812793639435e-95
1.8905673410391e-71
0
0
1.286182487908e-89
3.0681834158111e-90
4.4500875864267e-69
1.4978469032206e-69
3.8029417666374e-69
9.0490304318637e-71
1.4671466990603e-86
1.3971506492979e-68
3.3525006236166e-70
1.618561679601e-68
4.3359467455023e-68
1.2486801982051e-67
3.9380400306426e-67
7.8950851161647e-67
2.0444898014935e-66
4.2979337459696e-66
8.3614080750101e-66
2.053828537758e-65
3.8067176760863e-65
8.5048356418119e-65
1.57187721634e-64
2.6789773974668e-64
5.0835778325363e-64
8.0403974876228e-64
1.1438893601812e-63
1.4461136662403e-63
1.5004849221953e-63
1.5285679620064e-63
1.6174008763963e-63
1.6760541421306e-63
1.5619611228501e-63
1.5046132744243e-63
1.2504100900622e-63
8.9756068489302e-64
5.4406524687342e-64
2.4657548210437e-64
5.7358262424185e-65
3.9194576739493e-66
9.3457564422698e-67
2.7267998137446e-67
8.0930253600892e-68
2.1873077975717e-68
5.5824315002665e-69
1.4237371592031e-69
3.0062140115013e-70
1.4865066462912e-70
0
0
0
0
0
0
0
0
0
4.2230387292752e-91
3.8141085390001e-89
2.050019478873e-87
8.8389156069262e-86
2.3747681382476e-84
5.1634220418918e-83
1.0288263037888e-81
1.479812634333e-80
2.7755407185897e-79
4.5549601005368e-78
6.0358926573091e-77
7.4770110489334e-76
7.6440859819389e-75
9.0910231463713e-74
8.8868959377588e-73
7.7370306334615e-72
5.8358198981617e-71
4.5773742588671e-70
3.23521258965e-69
3.6740447695658e-68
2.6514594884609e-67
1.3334040151734e-66
9.2477429989686e-66
3.4196849051615e-65
1.7553209594454e-64
5.444144853831e-64
1.5397047040144e-63
9.2312237908396e-63
1.8999128132045e-62
8.4638671770514e-62
2.279920497392e-61
5.8559195264858e-61
6.5226787385594e-60
3.889454063215e-59
2.1574077051346e-58
1.1818226762551e-57
2.8970397615221e-57
7.3196520959876e-57
4.5275226738492e-57
1.1675355684792e-56
5.5008999424036e-56
1.0906422279514e-56
2.3893752215197e-55
3.7071686228947e-72
2.1786461079009e-54
1.2708960243643e-53
3.4178884934378e-55
6.032868281259e-53
1.7068642525756e-54
4.49673890447e-53
-1.4149498560667e-71
1.1591269220898e-70
4.7672446646139e-53
9.2730153767187e-70
1.1361685942001e-52
4.9369982871814e-68
1.0408959760367e-67
2.709884768625e-53
8.5797871161488e-67
1.1156388299286e-53
4.6500685677799e-66
7.4879019603542e-66
1.9565404764928e-52
4.120086639132e-65
4.8696638367661e-53
1.6931719035769e-64
2.4783559320395e-64
1.7567197250337e-53
2.6056412172321e-57
-9.2149991189474e-63
4.5348416976096e-59
1.601081018528e-63
1.7526959969484e-58
4.5279228760758e-57
4.8226408978635e-57
1.6691664356335e-63
5.1758191063032e-56
4.9173046980816e-59
9.6016000842751e-64
5.0699851405783e-59
1.4231608234086e-58
5.3635947750298e-65
1.1868646607314e-65
3.5869626728212e-59
1.7961216471222e-59
9.1232974687053e-60
9.5864814226847e-60
2.9160810990296e-60
2.7387330134442e-60
7.979821820546e-61
8.7443997990914e-61
0
0
0
0
0
0
0
6.2192781681126e-82
1.1002399227322e-79
9.5865081550105e-78
5.4968956049345e-76
2.3371279759638e-74
7.870642613284e-73
2.1893180634747e-71
5.1762108484161e-70
1.0615108905539e-68
1.9162273046917e-67
3.0791048829344e-66
4.444231907663e-65
5.8089052886846e-64
6.9309015123447e-63
7.612218562312e-62
7.7644887535263e-61
7.422963203767e-60
6.7103032058709e-59
5.7797051339093e-58
4.7693077051929e-57
3.7816726225856e-56
2.8831827736221e-55
2.1114373210712e-54
1.4824954639321e-53
9.9595808492145e-53
6.3909270774715e-52
3.9120639741639e-51
2.2825683865891e-50
1.2689937257907e-49
6.7220309880872e-49
3.3934370429521e-48
1.6332074035319e-47
7.4974473585284e-47
3.2846469629624e-46
1.3740734778077e-45
5.4918711404811e-45
2.0982477002474e-44
7.6673570609121e-44
2.6810236840942e-43
8.9747188075778e-43
2.8773367649616e-42
8.8385273282024e-42
2.6022205976545e-41
7.3455737826026e-41
1.9886354055353e-40
5.1647842585205e-40
1.287144456492e-39
3.0788105232023e-39
7.0699147890704e-39
1.5588621717517e-38
3.3009527885679e-38
6.71379363466e-38
1.3116788924877e-37
2.4615772517152e-37
4.4367406998345e-37
7.6777893367992e-37
1.2749036589109e-36
2.029510216073e-36
3.0930721173923e-36
4.5041287907338e-36
6.2475445618244e-36
8.2072817206056e-36
1.008135722838e-35
1.1316541687479e-35
1.162026451404e-35
1.1560859169312e-35
1.129832106856e-35
1.0666015215774e-35
9.5106992597287e-36
7.8892840266201e-36
5.9839622421068e-36
4.0751325280006e-36
2.4403843043925e-36
1.2574055914037e-36
5.4807815212182e-37
2.0200679357719e-37
6.4767340331857e-38
1.9096156107867e-38
5.4890275459957e-39
1.5914799903092e-39
4.6854182031385e-40
1.3921994025717e-40
4.1480057249361e-41
1.2354888923079e-41
3.6776379244955e-42
1.0949500673572e-42
3.2636719444381e-43
9.742154277753e-44
2.9147364236021e-44
8.6828793207746e-45
2.689232335905e-45
6.1161924931028e-46
4.4952464279691e-46
0
0
0
0
0
0
5.4989220341576e-82
1.4678896772296e-79
1.7313563385886e-77
1.2659962690542e-75
6.6042444456614e-74
2.654716336672e-72
8.634671234523e-71
2.350236888806e-69
5.4835091658744e-68
1.1162337863429e-66
2.0092058194848e-65
3.2320654796418e-64
4.686971600648e-63
6.1718301280335e-62
7.4270148160288e-61
8.2180471908845e-60
8.4166085143087e-59
8.0372998602747e-58
7.2132915439391e-57
6.1322528932093e-56
4.9723252689662e-55
3.8653387396198e-54
2.8896088571473e-53
2.0797348810273e-52
1.4406128562534e-51
9.5921328998e-51
6.1290928409764e-50
3.7520088563671e-49
2.1972572151461e-48
1.2295552511582e-47
6.5692634427884e-47
3.3494964279546e-46
1.6294839283846e-45
7.563765703051e-45
3.3506202687609e-44
1.4169154417542e-43
5.7221576307026e-43
2.207791529819e-42
8.1420469103462e-42
2.871338077038e-41
9.6873920066855e-41
3.1281978416727e-40
9.6724080273307e-40
2.8649116755276e-39
8.1320846459616e-39
2.2129835211024e-38
5.7756876203624e-38
1.4462079882883e-37
3.4753270728085e-37
8.0170229714554e-37
1.7757033596325e-36
3.7767918502807e-36
7.7142199007806e-36
1.5130836227284e-35
2.849605288318e-35
5.151868275345e-35
8.9383664370771e-35
1.4874505030679e-34
2.3723464119025e-34
3.622114717264e-34
5.285036786525e-34
7.3493865031897e-34
9.6903914699378e-34
1.1975302915038e-33
1.3574644115548e-33
1.4047735597083e-33
1.3997119526566e-33
1.3723864751576e-33
1.3035066410671e-33
1.1729895724668e-33
9.8483108294348e-34
7.5869529906174e-34
5.2709426007026e-34
3.2383298222058e-34
1.7234763947827e-34
7.8125728274008e-35
3.0067517561713e-35
1.0044670205695e-35
3.0584478118546e-36
8.9796537028826e-37
2.6400180178714e-37
7.8627810809234e-38
2.3645499702923e-38
7.1385278247925e-39
2.1564923339966e-39
6.5147342498942e-40
1.9694027807445e-40
5.9622987375073e-41
1.8082081118712e-41
5.4975360540446e-42
1.6637553407499e-42
5.2419346067802e-43
1.1966707788427e-43
9.1250793827762e-44
0
0
0
0
0
2.5772390395036e-82
9.0895913101902e-80
1.3918880066911e-77
1.2753666097063e-75
8.0991997433164e-74
3.8746460382913e-72
1.4728005143484e-70
4.6162709473453e-69
1.2258448976358e-67
2.8140621104615e-66
5.670738733132e-65
1.0153103043443e-63
1.6309384724861e-62
2.3693169334708e-61
3.1337219859647e-60
3.7954628199713e-59
4.2315392741918e-58
4.3643005620005e-57
4.1858076509138e-56
3.75603381772e-55
3.1760071583977e-54
2.5503227239035e-53
1.9584824950756e-52
1.4454765337941e-51
1.027701028573e-50
7.0386314145974e-50
4.6375961983937e-49
2.9344130781072e-48
1.7802969809338e-47
1.0344358514988e-46
5.7521191032627e-46
3.0596503479778e-45
1.5564204590383e-44
7.5706514868937e-44
3.5209240914211e-43
1.5655890463552e-42
6.655607998796e-42
2.7051256084773e-41
1.0512063283338e-40
3.905811852282e-40
1.3876857524138e-39
4.7149127726126e-39
1.5322137550189e-38
4.7632705854145e-38
1.4168652401191e-37
4.0337720817634e-37
1.0995288479324e-36
2.8708117583965e-36
7.1835576161263e-36
1.723822815893e-35
3.9700053608664e-35
8.782067133257e-35
1.867585257977e-34
3.8210260169307e-34
7.5256643104404e-34
1.4271751786027e-33
2.6054723171428e-33
4.5758469857163e-33
7.722050761087e-33
1.250248707167e-32
1.9384012845592e-32
2.8714069926586e-32
4.0520277756437e-32
5.421398708946e-32
6.8085338798701e-32
7.8670836348277e-32
8.2650518701853e-32
8.2569842485033e-32
8.1325028473174e-32
7.7808491660087e-32
7.0799292723207e-32
6.0266644449622e-32
4.7219286795507e-32
3.3491583437553e-32
2.1109677887836e-32
1.1594814874938e-32
5.4577743925994e-33
2.1899340623387e-33
7.6184814505366e-34
2.397692513473e-34
7.2023875952557e-35
2.1500087410834e-35
6.4818651234923e-36
1.9731268961835e-36
6.0358520901247e-37
1.8494508376946e-37
5.6714225548368e-38
1.7413372314283e-38
5.3569448686552e-39
1.6514176864478e-39
5.1048740756293e-40
1.5702877783888e-40
5.0359109943483e-41
1.1525522654829e-41
9.1446073306998e-42
0
0
0
0
0
2.2994572042189e-80
5.8718343444925e-78
7.2498773174364e-76
5.7522179686961e-74
3.3082019830371e-72
1.4760095340654e-70
5.338138244439e-69
1.6144642557783e-67
4.1788859597772e-66
9.421031045171e-65
1.8752701756368e-63
3.3320099992706e-62
5.3319676947167e-61
7.7405004075542e-60
1.0257485053182e-58
1.2475261655628e-57
1.3990549102066e-56
1.4527599388396e-55
1.4023209654747e-54
1.2638159618311e-53
1.0691103269855e-52
8.5462338939297e-52
6.505962041739e-51
4.7527050651313e-50
3.3512272645075e-49
2.2878137862086e-48
1.5126873394107e-47
9.6742523927821e-47
5.9729237426947e-46
3.5532606348737e-45
2.0332690865107e-44
1.1174346209619e-43
5.8896891275459e-43
2.9732963956413e-42
1.435996507288e-41
6.6283587717868e-41
2.9217589623557e-40
1.2291192732681e-39
4.9322829104037e-39
1.8873550051845e-38
6.8849115141861e-38
2.3938467702233e-37
7.9318854346333e-37
2.5042237744708e-36
7.5321839131169e-36
2.1580080040421e-35
5.8885235195887e-35
1.530149694582e-34
3.7864015321581e-34
8.9237603858442e-34
2.0039193331988e-33
4.2912606071625e-33
8.7753625448426e-33
1.7171755991078e-32
3.2241886668179e-32
5.8274613224609e-32
1.0172104687426e-31
1.719410578628e-31
2.8183800943607e-31
4.4784093725457e-31
6.8834316997637e-31
1.0195653044952e-30
1.448096437341e-30
1.9595484443488e-30
2.5005502613261e-30
2.952256319512e-30
3.1652040400345e-30
3.1787183868262e-30
3.1440863689128e-30
3.0306048352119e-30
2.7905067943297e-30
2.4101471773672e-30
1.9218770293701e-30
1.3921429882492e-30
9.0005839459338e-31
5.0980570333936e-31
2.488509750746e-31
1.0395889206843e-31
3.7637850380752e-32
1.2251676185941e-32
3.7709467548241e-33
1.1445137736465e-33
3.4954401567246e-34
1.0773751497332e-34
3.3398272875681e-35
1.0381347754092e-35
3.2323141733918e-36
1.0083822147367e-36
3.1537813200365e-37
9.8884017154866e-38
3.10976088791e-38
9.7283081013081e-39
3.1778078488608e-39
7.2799482272463e-40
6.031148444484e-40
0
0
0
0
6.2404732824479e-91
9.9751303700636e-79
2.2342632573785e-76
2.4750782303512e-74
1.8014092354193e-72
9.679731103826e-71
4.0950866439228e-69
1.4209128791414e-67
4.1616204380445e-66
1.0509446532329e-64
2.3254246373007e-63
4.5658604809385e-62
8.0362039560679e-61
1.2783992095249e-59
1.8506004692394e-58
2.4518319805607e-57
2.9879131994624e-56
3.363782287373e-55
3.5117774901566e-54
3.4114746020742e-53
3.0935127788498e-52
2.6276357321454e-51
2.1004782941854e-50
1.5910712553454e-49
1.1526834127907e-48
8.0717948199167e-48
5.5160002153833e-47
3.7020365826041e-46
2.4456469130142e-45
1.5878754104468e-44
1.008906934629e-43
6.2372216956708e-43
3.7289388009992e-42
2.14390399677e-41
1.1798838574765e-40
6.1935137711742e-40
3.092937258729e-39
1.4667644353512e-38
6.5976693692569e-38
2.8128159576524e-37
1.1361234083132e-36
4.3465114915734e-36
1.5748306545388e-35
5.4034922357169e-35
1.7556527164101e-34
5.4012627701086e-34
1.5732479792623e-33
4.3378007176623e-33
1.1318720737767e-32
2.7938895397111e-32
6.5202723169094e-32
1.4376719551816e-31
2.9925832362977e-31
5.8765368045156e-31
1.0883795267482e-30
1.9027046773721e-30
3.1479828806376e-30
4.9544656352754e-30
7.4756346141228e-30
1.0916997675256e-29
1.5571447911867e-29
2.1831606264882e-29
3.0138827491647e-29
4.0827223112399e-29
5.3829161373434e-29
6.8187514872526e-29
8.1266214413274e-29
8.8764713149085e-29
8.9886954886625e-29
8.9194186161543e-29
8.6581529544965e-29
8.0671049651477e-29
7.0712481892434e-29
5.7411440718357e-29
4.2483276441243e-29
2.8172359674415e-29
1.6446941678453e-29
8.3176205043882e-30
3.6141430105298e-30
1.361251377646e-30
4.5863377821463e-31
1.4485337873422e-31
4.4761463326496e-32
1.3860006672153e-32
4.3270636014394e-33
1.3595478059101e-33
4.2877041736749e-34
1.3558664315008e-34
4.2996060409857e-35
1.3678499410782e-35
4.3647050124049e-36
1.3973752489568e-36
4.448369117835e-37
1.4811906926646e-37
3.3894187452707e-38
2.9448275115477e-38
0
0
0
0
3.9472909341444e-89
2.8149804969276e-77
5.8856166582032e-75
6.1263207404669e-73
4.2229230834275e-71
2.1658345565976e-69
8.8085518458984e-68
2.9572742707354e-66
8.4281960287603e-65
2.0813751309451e-63
4.5232577777785e-62
8.7567210849325e-61
1.5249579796855e-59
2.4077246810708e-58
3.4691202264473e-57
4.5863911297427e-56
5.589399339298e-55
6.3044587706746e-54
6.6055066549414e-53
6.4498650385287e-52
5.8847857478389e-51
5.0277494523903e-50
4.0324629244712e-49
3.0505241531021e-48
2.1967207458569e-47
1.5281601156871e-46
1.0458314507074e-45
7.1549413678979e-45
4.9300042631567e-44
3.4090848619143e-43
2.3383371273036e-42
1.5682872765763e-41
1.0153970142547e-40
6.286308364189e-40
3.6979241267566e-39
2.0589898163295e-38
1.0828153914e-37
5.3728129823437e-37
2.5143648255937e-36
1.1097758950135e-35
4.6207865059105e-35
1.8155380427828e-34
6.7336125524991e-34
2.3581862128671e-33
7.8002322576576e-33
2.4373550259716e-32
7.1953768604396e-32
2.0067672522787e-31
5.2864374354046e-31
1.3148691171214e-30
3.0859626563253e-30
6.8283461159827e-30
1.4228651619995e-29
2.7880377037486e-29
5.1277394756986e-29
8.8339683475973e-29
1.4231842614819e-28
2.1441122463121e-28
3.031752613666e-28
4.059379363336e-28
5.2186479299239e-28
6.5448108553661e-28
8.1182200542661e-28
1.0039195563018e-27
1.2373532171207e-27
1.5054014132662e-27
1.7705071358339e-27
1.9495403907582e-27
1.9916922619777e-27
1.9809494436445e-27
1.9342601220469e-27
1.8218027812734e-27
1.6199938159214e-27
1.3393741669838e-27
1.0129862366301e-27
6.8938460031677e-28
4.1490135289868e-28
2.173139776775e-28
9.8136069781677e-29
3.8425911356407e-29
1.3400889009533e-29
4.3471721117826e-30
1.3693747410976e-30
4.3031268700538e-31
1.3615662725799e-31
4.3375458021263e-32
1.3883927962548e-32
4.4606891364988e-33
1.4385623158101e-33
4.6580784604868e-34
1.5137220419925e-34
4.9371905955052e-35
1.6004239611582e-35
5.4367852678682e-36
1.2391874331844e-36
1.1354677956545e-36
0
0
0
0
9.3392759817204e-88
5.8233705278347e-76
1.16903240162e-73
1.170830492056e-71
7.7889276974776e-70
3.8682078514253e-68
1.5285956701152e-66
5.0032081489028e-65
1.3946172139748e-63
3.3786701176768e-62
7.2236764640994e-61
1.3795929264809e-59
2.3763680804898e-58
3.7203434410682e-57
5.327976487792e-56
7.0174920000335e-55
8.5377170597125e-54
9.6311629239875e-53
1.0108961164415e-51
9.9043745751428e-51
9.0819304001572e-50
7.8061306461548e-49
6.2941464324224e-48
4.770327946515e-47
3.4231679025623e-46
2.3657817350685e-45
1.6174089402714e-44
1.1239095941675e-43
8.0402514710311e-43
5.875311803659e-42
4.2938936688285e-41
3.0681786600844e-40
2.106122375709e-39
1.3731826465412e-38
8.4491644681271e-38
4.8905079322022e-37
2.6596359096228e-36
1.3588769618624e-35
6.5259699040486e-35
2.9481431938161e-34
1.2538727123347e-33
5.0246498633592e-33
1.8984910986722e-32
6.7671982162131e-32
2.2766394415679e-31
7.2308851036168e-31
2.1685049933049e-30
6.1403103640794e-30
1.6412904509394e-29
4.1395775869694e-29
9.8452394758981e-29
2.2060731608276e-28
4.6515895327664e-28
9.2135391968487e-28
1.7105968756223e-27
2.9690560333418e-27
4.8021457343577e-27
7.2097715054555e-27
1.0016868725266e-26
1.2893359420501e-26
1.5533576625131e-26
1.7865679350041e-26
2.0064457284005e-26
2.2415463027047e-26
2.5194547548598e-26
2.8542909792868e-26
3.2213053658121e-26
3.5157393795983e-26
3.6130801893824e-26
3.6008956325753e-26
3.534054503245e-26
3.3609911082092e-26
3.0303649749124e-26
2.5496588828073e-26
1.9687967196049e-26
1.3727999099088e-26
8.5005715537303e-27
4.6023433780051e-27
2.1571819950673e-27
8.7800030342482e-28
3.1734418232855e-28
1.0595300824526e-28
3.4088384293413e-29
1.0884539912301e-29
3.4927604914895e-30
1.1286015968235e-30
3.6677564329827e-31
1.1977930055535e-31
3.9307101259137e-32
1.2963241123424e-32
4.2934401664249e-33
1.4277783708416e-33
4.7162340927327e-34
1.6361877902092e-34
3.6993344235639e-35
3.602317442042e-35
0
0
0
0
7.7573860124477e-87
9.4290411279057e-75
1.8451028863005e-72
1.8024447163e-70
1.1708790541934e-68
5.6862166936144e-67
2.2007345248404e-65
7.0666557539548e-64
1.9357417981824e-62
4.6163729633418e-61
9.7323564191433e-60
1.8360024788282e-58
3.129519014793e-57
4.8570225847905e-56
6.9084025183481e-55
9.0542168452683e-54
1.0981591001465e-52
1.2370880597853e-51
1.2986632611693e-50
1.2744556801649e-49
1.1724634018039e-48
1.0128648598501e-47
8.2157308064543e-47
6.2534745984784e-46
4.4841212876924e-45
3.0797687478869e-44
2.0942741973938e-43
1.4647242945706e-42
1.0740138948261e-41
8.1632675297493e-41
6.2447517203289e-40
4.6693118921635e-39
3.3427802150187e-38
2.2636699172905e-37
1.4409580950449e-36
8.5987143924184e-36
4.80659134586e-35
2.5177736528673e-34
1.237009152915e-33
5.7070595615141e-33
2.475476779688e-32
1.0106457227912e-31
3.8873342467387e-31
1.4097949715456e-30
4.823536590497e-30
1.5575908701585e-29
4.7479949553029e-29
1.3663010158341e-28
3.7109541202603e-28
9.5095545248942e-28
2.2978104164624e-27
5.2310708049487e-27
1.1206902461418e-26
2.2558251481621e-26
4.2574392443204e-26
7.5144629517335e-26
1.2358828679888e-25
1.8857346915291e-25
2.6489195371684e-25
3.4084221402243e-25
4.0159161961263e-25
4.3859007746115e-25
4.5780024980865e-25
4.7048864035042e-25
4.8375233212585e-25
5.0155069699025e-25
5.2519361184408e-25
5.4891555029657e-25
5.5864985416907e-25
5.5721446369868e-25
5.482493431568e-25
5.2363897593951e-25
4.7598970037478e-25
4.0552800190048e-25
3.1874208235823e-25
2.27452486843e-25
1.4490789078278e-25
8.112484149133e-26
3.9475091062714e-26
1.6705418580867e-26
6.2626116420433e-27
2.1551167303815e-27
7.0934637421428e-28
2.3044950431836e-28
7.5058333414187e-29
2.461270362898e-29
8.1243867894153e-30
2.6981402957161e-30
9.0149958965847e-31
3.0302110823235e-31
1.0236596177309e-31
3.4737048152765e-32
1.1701393651314e-32
4.1490057440603e-33
9.3972403781907e-34
9.5447341349036e-34
0
0
0
0
8.4773554346302e-87
1.2455594632681e-73
2.3973653710469e-71
2.3036432403239e-69
1.4724988414436e-67
7.0402514850281e-66
2.6843709026299e-64
8.4983557838539e-63
2.2970565011291e-61
5.4100703176938e-60
1.1274601649429e-58
2.1046028483818e-57
3.553553775817e-56
5.4696316451555e-55
7.7254841895643e-54
1.0068665820307e-52
1.2162190698751e-51
1.366556559707e-50
1.4329046090385e-49
1.4063541604799e-48
1.2957437812657e-47
1.1231468205313e-46
9.1596528313044e-46
7.0122630737179e-45
5.0391094361964e-44
3.4437600000833e-43
2.3188652389079e-42
1.6136311947891e-41
1.1935658325014e-40
9.2783408967168e-40
7.3143747905257e-39
5.6471477187842e-38
4.1713019823407e-37
2.9100231474019e-36
1.9054448719799e-35
1.1680970437095e-34
6.7003183390783e-34
3.5976855876568e-33
1.8098853770107e-32
8.5402334089628e-32
3.7844948809451e-31
1.5768371562539e-30
6.1842379267996e-30
2.2851813937016e-29
7.9620739693509e-29
2.6172970021468e-28
8.1201212578414e-28
2.3780706401861e-27
6.5737677998676e-27
1.7147771682287e-26
4.218701919178e-26
9.7811225983041e-26
2.1348131578557e-25
4.3796292726797e-25
8.4289980182577e-25
1.5179948735416e-24
2.5494389161891e-24
3.9741370105973e-24
5.7068607408776e-24
7.4669462032583e-24
8.7886505221169e-24
9.3353405558005e-24
9.3722450753793e-24
9.2906659873274e-24
9.0517357288441e-24
8.6512680350917e-24
8.2321403756933e-24
7.9338986270751e-24
7.7389917524051e-24
7.5641127380205e-24
7.3284793463265e-24
6.9445558278176e-24
6.332973620111e-24
5.4605635251455e-24
4.3736915197028e-24
3.1976796123762e-24
2.0974113414599e-24
1.2145336139811e-24
6.1367089381475e-25
2.7013593980758e-25
1.0513099712311e-25
3.7339327854399e-26
1.2591533185029e-26
4.1668602202037e-27
1.378542843525e-27
4.5896401294136e-28
1.5394134730388e-28
5.2013340475793e-29
1.7703781090819e-29
6.069158194339e-30
2.0928344683972e-30
7.2529222813561e-31
2.493776599524e-31
9.0347915310855e-32
2.0797164241936e-32
2.1568146223776e-32
0
0
0
5.9587149093921e-101
1.6973248833279e-86
1.381296873352e-72
2.63017548271e-70
2.4998431055544e-68
1.5805044324952e-66
7.4752076091374e-65
2.8200942055687e-63
8.8363092734998e-62
2.3646631014541e-60
5.515999524701e-59
1.1390343715905e-57
2.1078177257821e-56
3.5302330223531e-55
5.3935608850263e-54
7.5676629856507e-53
9.8068465113551e-52
1.1791465378095e-50
1.3204039659304e-49
1.3815025786916e-48
1.3544671763208e-47
1.2479480447711e-46
1.0833643996874e-45
8.8694400173317e-45
6.8308365323427e-44
4.9324528759559e-43
3.3631470895638e-42
2.2364420154832e-41
1.5310153120352e-40
1.1233518827535e-39
8.7851963405648e-39
7.0430056451572e-38
5.5593371966727e-37
4.2063502816591e-36
3.0074319270749e-35
2.0184965952505e-34
1.2685125892487e-33
7.4603116379923e-33
4.1075926510708e-32
2.1190291774592e-31
1.0252320239409e-30
4.6567598150987e-30
1.9878174080747e-29
7.9828581262717e-29
3.0190523638541e-28
1.0762354573951e-27
3.6189757507455e-27
1.1484808855839e-26
3.4405384345248e-26
9.7291753855824e-26
2.5961637961165e-25
6.5332694945971e-25
1.5490914667371e-24
3.4565096112855e-24
7.2463539030389e-24
1.4244234882102e-23
2.6186495177234e-23
4.4873057827822e-23
7.1335304499793e-23
1.0443640130524e-22
1.3884289224024e-22
1.6393425505565e-22
1.7187852121345e-22
1.7122341536828e-22
1.6737800842586e-22
1.5819356151684e-22
1.4281164137428e-22
1.2490251345701e-22
1.0924920868416e-22
9.8443443694215e-23
9.1507216692192e-23
8.6110538201014e-23
8.0401001513897e-23
7.3112919436367e-23
6.3528525607983e-23
5.1725018063755e-23
3.8711474972117e-23
2.6144105877187e-23
1.5667401138536e-23
8.2260194738954e-24
3.7699450726628e-24
1.524931774352e-24
5.5981227118906e-25
1.9368464512967e-25
6.5356244274936e-26
2.1975886154438e-26
7.4310764242609e-27
2.5333696247751e-27
8.7116065111843e-28
3.0220971461881e-28
1.0572878920401e-28
3.7242731431577e-29
1.3191959895396e-29
4.6340938224468e-30
1.7157741209509e-30
4.0286063471752e-31
4.2563395060223e-31
0
0
0
3.5879577898668e-98
2.6372134598323e-85
1.313107793321e-71
2.4832773203444e-69
2.3434501746722e-67
1.470837570663e-65
6.9052481161537e-64
2.5858168150576e-62
8.042712131326e-61
2.1366365070178e-59
4.9483192202571e-58
1.0146281913037e-56
1.8647313606606e-55
3.1024154902431e-54
4.710091460567e-53
6.5697373454819e-52
8.4678299622281e-51
1.0133778026411e-49
1.1304350721333e-48
1.1793605109452e-47
1.1540677577418e-46
1.0621637324727e-45
9.2203514027003e-45
7.5629741476864e-44
5.8529984851509e-43
4.2535038824533e-42
2.9047776951729e-41
1.9092314406943e-40
1.2749321271396e-39
9.126631302649e-39
7.0593135093838e-38
5.6828981037512e-37
4.548249546049e-36
3.5060959118395e-35
2.5597401997633e-34
1.7565404560791e-33
1.1297300460058e-32
6.8058119864006e-32
3.8418613058916e-31
2.0338546331744e-30
1.0107567867875e-29
4.72011097627e-29
2.0731455532776e-28
8.5710543094759e-28
3.3380436293283e-27
1.2254630386623e-26
4.2433269357511e-26
1.3863658450365e-25
4.2743710619118e-25
1.2434234040882e-24
3.4112303345973e-24
8.8187774834801e-24
2.146039556561e-23
4.9089129276516e-23
1.0536402981989e-22
2.1174774860045e-22
3.9736845308672e-22
6.9396866269773e-22
1.1225541364779e-21
1.668889562501e-21
2.2457808010687e-21
2.6616150412711e-21
2.7793843246712e-21
2.7618541156734e-21
2.6796385118607e-21
2.4873232550156e-21
2.1648062438035e-21
1.7784732200474e-21
1.4221278488382e-21
1.1638009389256e-21
1.0048487469302e-21
9.0490708380232e-22
8.2588709276304e-22
7.4478964120042e-22
6.4920754430116e-22
5.3546305272257e-22
4.0930186937888e-22
2.8428780086524e-22
1.7624730505127e-22
9.6178431653771e-23
4.5924652360935e-23
1.9332870015644e-23
7.3484339638503e-24
2.6129109244344e-24
9.001216833503e-25
3.0780575506822e-25
1.0573937269502e-25
3.6645087907128e-26
1.2827641437208e-26
4.5370155611351e-27
1.6207047211318e-27
5.8356112140328e-28
2.1143741744838e-28
7.5953541655741e-29
2.8757723146264e-29
6.8961950523276e-30
7.4293061167161e-30
0
0
0
6.1408682182263e-97
1.3170965058971e-84
1.087126820857e-70
2.0475440002485e-68
1.9237586106704e-66
1.2018078863597e-64
5.6148680220028e-63
2.0921160140198e-61
6.4740883788271e-60
1.7110587163638e-58
3.9420888527384e-57
8.0408577780022e-56
1.4700603113251e-54
2.4330431490435e-53
3.674939420752e-52
5.1003425991998e-51
6.5424929467074e-50
7.795041638265e-49
8.6615724782558e-48
9.0072953959377e-47
8.7922268283606e-46
8.0773978819365e-45
7.0036438606001e-44
5.7453051708782e-43
4.4589328620007e-42
3.2605191132641e-41
2.238264982108e-40
1.4610178834883e-39
9.4911160766968e-39
6.5339743438747e-38
4.9061441853492e-37
3.9091058909681e-36
3.1448107644745e-35
2.457939316815e-34
1.8271825362755e-33
1.2794854532344e-32
8.4095240904784e-32
5.1839232079525e-31
2.9984585959774e-30
1.6289545186858e-29
8.3213990218899e-29
4.0019712649321e-28
1.8137720136353e-27
7.7522123002185e-27
3.125725482144e-26
1.1889834655091e-25
4.2661001321422e-25
1.4434289395012e-24
4.6037396282424e-24
1.3834855152951e-23
3.9148456642237e-23
1.0422329220595e-22
2.6076034755747e-22
6.1223442190304e-22
1.346492097105e-21
2.7677849436146e-21
5.3024068842941e-21
9.4340172547649e-21
1.5513492496965e-20
2.338858209044e-20
3.1797310320341e-20
3.7852915616118e-20
3.9467822028207e-20
3.9165367123183e-20
3.78124158124e-20
3.4665948583987e-20
2.9422593600115e-20
2.3092957815921e-20
1.7149516036761e-20
1.2754799096171e-20
1.0086359851402e-20