/*--------------------------------*- C++ -*----------------------------------*\
  =========                 |
  \\      /  F ield         | OpenFOAM: The Open Source CFD Toolbox
   \\    /   O peration     | Website:  https://openfoam.org
    \\  /    A nd           | Version:  7
     \\/     M anipulation  |
\*---------------------------------------------------------------------------*/
FoamFile
{
    version     2.0;
    format      ascii;
    class       volScalarField;
    location    "0.01";
    object      T;
}
// * * * * * * * * * * * * * * * * * * * * * * * * * * * * * * * * * * * * * //

dimensions      [0 0 0 1 0 0 0];

internalField   nonuniform List<scalar> 
12225
(
1.00689
1.0041
1.00171
1.00089
1.00043
1.00012
0.999963
0.999896
0.99986
0.999829
0.999788
0.999693
0.999458
0.998855
0.997341
0.993634
0.984221
0.96062
0.995136
0.994812
0.996745
0.998334
0.999127
0.999464
0.999643
0.999762
0.999833
0.999865
0.999858
0.999789
0.999571
0.998997
0.997545
0.994019
0.985375
0.964812
0.999619
1.00005
1.00023
1.00028
1.0002
1.00008
0.999991
0.999951
0.999928
0.999903
0.999862
0.999773
0.999551
0.998999
0.997642
0.994415
0.986857
0.970365
1.00032
1.00017
0.999777
0.999749
0.999819
0.999835
0.999837
0.999849
0.99986
0.999858
0.999835
0.999761
0.999562
0.99906
0.997838
0.994999
0.988681
0.975895
1.00014
0.999947
0.999658
0.999701
0.999818
0.999857
0.999862
0.99987
0.999877
0.999874
0.999851
0.999782
0.999599
0.999145
0.99807
0.995653
0.99054
0.980852
1.00002
0.999951
0.999769
0.999773
0.999847
0.999872
0.999872
0.999876
0.99988
0.999877
0.999856
0.999793
0.999629
0.999232
0.998313
0.996319
0.992299
0.985078
0.999995
1
0.999864
0.999822
0.999858
0.999877
0.999878
0.999881
0.999885
0.999882
0.999863
0.999807
0.999664
0.999325
0.998563
0.996966
0.993881
0.988572
0.999995
1.00002
0.999917
0.999858
0.999872
0.999888
0.999889
0.99989
0.999893
0.999889
0.999873
0.999824
0.999702
0.999421
0.998806
0.997561
0.995247
0.991395
0.999995
1.00002
0.999951
0.999894
0.999893
0.999902
0.999902
0.999902
0.999902
0.999898
0.999884
0.999842
0.99974
0.999513
0.999032
0.998087
0.996387
0.993631
0.999995
1.00002
0.999976
0.999926
0.999916
0.999918
0.999916
0.999914
0.999913
0.999909
0.999896
0.99986
0.999779
0.999601
0.999233
0.998535
0.997312
0.99537
0.999996
1.00002
0.999992
0.999953
0.999938
0.999934
0.999931
0.999927
0.999925
0.999921
0.999908
0.99988
0.999816
0.99968
0.999407
0.998903
0.998042
0.996697
0.999997
1.00001
1
0.999971
0.999954
0.999948
0.999944
0.99994
0.999936
0.999931
0.999921
0.999897
0.999847
0.999743
0.99954
0.999173
0.998557
0.997608
0.999997
1.00001
1.00001
0.999984
0.999968
0.999962
0.999956
0.999952
0.999947
0.999941
0.999934
0.999915
0.999875
0.999798
0.999651
0.999389
0.998958
0.998301
0.999997
1.00001
1.00001
0.999993
0.999981
0.999974
0.999968
0.999964
0.999959
0.999954
0.999947
0.999933
0.999904
0.99985
0.999751
0.999577
0.999297
0.998874
0.999998
1.00001
1.00001
1
0.999991
0.999985
0.999981
0.999977
0.999972
0.999966
0.99996
0.99995
0.999932
0.999897
0.999834
0.999729
0.999562
0.999313
0.999998
1.00001
1.00001
1
0.999998
0.999994
0.999991
0.999988
0.999983
0.999978
0.999973
0.999967
0.999956
0.999935
0.999898
0.99984
0.99975
0.999617
0.999998
1.00001
1.00001
1.00001
1
0.999999
0.999998
0.999995
0.999992
0.999988
0.999984
0.999979
0.999973
0.999963
0.999944
0.999915
0.999872
0.999809
0.999999
1.00001
1.00001
1.00001
1
1
1
0.999998
0.999995
0.999993
0.999992
0.99999
0.999985
0.999978
0.99997
0.999959
0.99994
0.999914
1
1.00001
1.00001
1.00001
1
1
1
0.999999
0.999998
0.999996
0.999994
0.999991
0.999989
0.999986
0.999983
0.999978
0.99997
0.99996
0.999999
1.00001
1.00001
1.00001
1.00001
1
0.999998
0.999996
0.999993
0.999991
0.999989
0.999987
0.999984
0.999981
0.999979
0.999976
0.999972
0.999968
0.999997
1.00001
1.00001
1.00001
1
0.999998
0.999993
0.999988
0.999985
0.999982
0.999979
0.999976
0.999973
0.999972
0.99997
0.999967
0.999966
0.999963
0.999997
1.00001
1.00002
1.00001
0.999995
0.999988
0.999982
0.999975
0.999969
0.999965
0.999964
0.999963
0.99996
0.999959
0.999958
0.999957
0.999956
0.999954
0.999996
1.00003
1.00003
0.999996
0.999972
0.999966
0.999961
0.999956
0.999952
0.999949
0.999948
0.999947
0.999946
0.999945
0.999945
0.999944
0.999944
0.999944
0.999989
1.00005
1.00004
0.999983
0.999948
0.999938
0.999932
0.999929
0.999929
0.999931
0.999932
0.999933
0.999932
0.999933
0.999934
0.999934
0.999935
0.999935
0.99999
1.00004
0.999992
0.999937
0.999931
0.999929
0.999917
0.999909
0.999908
0.99991
0.999912
0.999915
0.999917
0.999918
0.999919
0.999921
0.999923
0.999925
1.00013
1.00009
0.999825
0.999756
0.999837
0.999896
0.999909
0.999912
0.999916
0.999918
0.99992
0.999921
0.999922
0.999922
0.999923
0.999924
0.999925
0.999925
1.0005
1.00053
0.999952
0.999665
0.999667
0.999718
0.999754
0.999789
0.99982
0.999844
0.999861
0.999875
0.999885
0.999893
0.9999
0.999905
0.999909
0.999914
1.00004
1.0008
1.00096
1.0008
1.00056
1.00034
1.00018
1.00009
1.00003
0.999996
0.99997
0.999954
0.999943
0.999935
0.99993
0.999925
0.999921
0.999921
0.994604
0.993791
0.995838
0.997661
0.998662
0.999144
0.999416
0.999594
0.99971
0.999782
0.999829
0.999863
0.999887
0.999905
0.999918
0.999928
0.999933
0.99993
1.00635
1.00419
1.00178
1.00096
1.00054
1.00023
1.00005
0.999977
0.999939
0.999915
0.9999
0.999891
0.999888
0.999886
0.999885
0.999886
0.999888
0.999899
0.0294275
0.0293881
0.0293091
0.0291914
0.0290355
0.0288418
0.0286112
0.0283447
0.0280438
0.0277099
0.0273447
0.0269499
0.0265271
0.0260783
0.0256055
0.0251108
0.0245962
0.024064
0.0235163
0.0229553
0.0223832
0.021802
0.021214
0.0206212
0.0200254
0.0194286
0.0188325
0.0182387
0.0176485
0.0170636
0.0164853
0.0159153
0.0153562
0.0148114
0.0142763
0.0137481
0.0132308
0.0127242
0.012229
0.0117457
0.011274
0.0108154
0.0103703
0.00993684
0.00951579
0.00910759
0.0087112
0.00832666
0.00795378
0.00759238
0.00724228
0.0069033
0.00657526
0.00625799
0.00595131
0.00565506
0.00536906
0.00509314
0.00482713
0.00457086
0.00432416
0.00408686
0.00385877
0.00363973
0.00342956
0.00322806
0.00303507
0.0028504
0.00267386
0.00250526
0.00234441
0.00219112
0.0020452
0.00190645
0.00177467
0.00164967
0.00153124
0.00141919
0.00131333
0.00121344
0.00111932
0.00103079
0.000947628
0.000869642
0.00079663
0.000728391
0.000664727
0.00060544
0.000550333
0.000499211
0.000451881
0.000408152
0.000367836
0.000330748
0.000296705
0.000265529
0.000237047
0.000211086
0.000187485
0.000166083
0.000146726
0.000129265
0.000113559
9.94717e-05
8.68728e-05
7.5639e-05
6.56531e-05
5.68043e-05
4.89885e-05
4.21076e-05
3.60704e-05
3.07915e-05
2.6192e-05
2.2199e-05
1.87451e-05
1.57689e-05
1.32142e-05
1.10298e-05
9.16958e-06
7.59193e-06
6.25948e-06
5.13893e-06
4.20065e-06
3.41849e-06
2.76941e-06
2.23326e-06
1.79247e-06
1.43182e-06
1.13817e-06
9.00273e-07
7.08511e-07
5.54735e-07
4.32067e-07
3.34738e-07
2.57933e-07
1.97659e-07
1.50623e-07
1.14129e-07
8.59771e-08
6.43898e-08
4.79355e-08
3.54702e-08
2.60851e-08
1.90637e-08
1.38442e-08
9.98924e-09
7.16084e-09
5.09944e-09
3.60721e-09
2.53438e-09
1.76842e-09
1.22541e-09
8.43173e-10
5.76053e-10
3.90735e-10
2.63111e-10
1.75878e-10
1.16697e-10
7.68534e-11
5.02331e-11
3.25838e-11
2.09757e-11
1.33986e-11
8.49096e-12
5.33983e-12
3.33185e-12
2.06246e-12
1.26647e-12
7.7141e-13
4.66051e-13
2.79265e-13
1.65962e-13
9.78096e-14
5.71614e-14
3.31229e-14
1.90279e-14
1.08345e-14
6.11206e-15
3.41706e-15
1.89472e-15
0.0309109
0.0308683
0.0307832
0.0306565
0.0304894
0.0302829
0.0300381
0.0297562
0.0294386
0.0290869
0.0287028
0.0282883
0.0278452
0.0273756
0.0268815
0.0263652
0.0258288
0.0252746
0.0247047
0.0241216
0.0235273
0.0229242
0.0223143
0.0216998
0.0210828
0.0204651
0.0198487
0.0192352
0.0186263
0.0180233
0.0174273
0.0168391
0.0162593
0.0156852
0.0151195
0.0145681
0.0140297
0.0135044
0.0129922
0.0124926
0.0120061
0.0115319
0.0110693
0.0106194
0.0101822
0.0097567
0.00934311
0.00894137
0.00855134
0.00817286
0.00780576
0.00744988
0.00710504
0.00677108
0.00644784
0.00613514
0.00583285
0.00554079
0.0052588
0.00498673
0.00472442
0.0044717
0.00422842
0.00399441
0.0037695
0.00355352
0.0033463
0.00314767
0.00295745
0.00277545
0.00260151
0.00243543
0.00227704
0.00212614
0.00198254
0.00184606
0.00171651
0.00159368
0.00147739
0.00136743
0.00126362
0.00116575
0.00107363
0.000987056
0.000905825
0.000829739
0.000758597
0.0006922
0.000630346
0.000572837
0.000519474
0.000470061
0.000424402
0.000382303
0.000343575
0.000308029
0.000275482
0.000245753
0.000218664
0.000194043
0.000171726
0.000151551
0.000133366
0.00011702
0.00010237
8.92803e-05
7.76207e-05
6.72679e-05
5.81051e-05
5.00225e-05
4.29169e-05
3.66919e-05
3.12578e-05
2.65314e-05
2.24357e-05
1.89001e-05
1.58599e-05
1.32559e-05
1.10347e-05
9.14777e-06
7.55159e-06
6.20716e-06
5.07973e-06
4.13852e-06
3.35635e-06
2.70939e-06
2.17679e-06
1.74047e-06
1.38479e-06
1.09629e-06
8.63485e-07
6.76599e-07
5.2737e-07
4.08852e-07
3.15243e-07
2.4172e-07
1.843e-07
1.39716e-07
1.053e-07
7.8893e-08
5.87536e-08
4.34885e-08
3.19904e-08
2.33845e-08
1.69848e-08
1.22569e-08
8.78714e-09
6.2578e-09
4.42657e-09
3.10989e-09
2.1698e-09
1.50333e-09
1.03423e-09
7.06426e-10
4.79048e-10
3.22482e-10
2.15496e-10
1.42931e-10
9.40941e-11
6.1476e-11
3.98574e-11
2.56464e-11
1.63746e-11
1.03728e-11
6.51959e-12
4.06535e-12
2.51476e-12
1.54307e-12
9.3917e-13
5.66952e-13
3.39445e-13
2.01553e-13
1.18681e-13
6.92962e-14
4.01174e-14
2.30242e-14
1.30974e-14
7.38184e-15
4.12232e-15
2.28145e-15
0.0339004
0.0338472
0.033748
0.0336032
0.0334141
0.0331819
0.0329082
0.032595
0.032244
0.0318571
0.0314362
0.0309835
0.0305009
0.0299908
0.0294553
0.0288969
0.0283177
0.0277202
0.0271069
0.02648
0.0258419
0.025195
0.0245415
0.0238835
0.0232232
0.0225624
0.0219031
0.0212469
0.0205953
0.0199497
0.0193114
0.0186818
0.0180622
0.0174528
0.0168544
0.0162678
0.0156933
0.0151314
0.0145824
0.0140465
0.0135237
0.0130138
0.0125167
0.0120319
0.0115593
0.0110987
0.0106501
0.0102134
0.00978849
0.00937523
0.00897348
0.00858308
0.0082039
0.00783579
0.00747862
0.00713225
0.00679654
0.00647137
0.00615659
0.00585208
0.0055577
0.00527331
0.00499878
0.00473396
0.00447872
0.00423289
0.00399634
0.00376891
0.00355045
0.0033408
0.00313979
0.00294726
0.00276305
0.00258699
0.0024189
0.0022586
0.00210593
0.0019607
0.00182272
0.00169182
0.0015678
0.00145047
0.00133965
0.00123512
0.0011367
0.00104419
0.000957382
0.000876072
0.000800056
0.000729127
0.000663076
0.000601695
0.000544775
0.000492108
0.000443485
0.000398702
0.000357552
0.000319833
0.000285346
0.000253896
0.000225292
0.000199348
0.000175884
0.000154724
0.000135698
0.000118644
0.000103405
8.98316e-05
7.77815e-05
6.71198e-05
5.7719e-05
4.94593e-05
4.22282e-05
3.59212e-05
3.04408e-05
2.56972e-05
2.16074e-05
1.80956e-05
1.50925e-05
1.25351e-05
1.03666e-05
8.53602e-06
6.99747e-06
5.71027e-06
4.63835e-06
3.74995e-06
3.01718e-06
2.41576e-06
1.92462e-06
1.52558e-06
1.20305e-06
9.43734e-07
7.36366e-07
5.71447e-07
4.41019e-07
3.38452e-07
2.58258e-07
1.95923e-07
1.47759e-07
1.10769e-07
8.2535e-08
6.11187e-08
4.49764e-08
3.28875e-08
2.38932e-08
1.72455e-08
1.2365e-08
8.80629e-09
6.22927e-09
4.3761e-09
3.05285e-09
2.11477e-09
1.45451e-09
9.93203e-10
6.73287e-10
4.53047e-10
3.02611e-10
2.00608e-10
1.31991e-10
8.61897e-11
5.58491e-11
3.591e-11
2.29093e-11
1.45001e-11
9.10501e-12
5.67164e-12
3.50454e-12
2.14795e-12
1.30576e-12
7.87274e-13
4.70753e-13
2.79152e-13
1.6415e-13
9.57116e-14
5.53309e-14
3.17095e-14
1.80116e-14
1.01369e-14
5.65218e-15
3.12128e-15
0.0384896
0.0384208
0.0382998
0.038128
0.0379063
0.0376366
0.0373212
0.0369623
0.0365623
0.0361235
0.0356482
0.0351388
0.0345976
0.0340272
0.0334301
0.0328088
0.0321659
0.0315041
0.0308258
0.0301338
0.0294304
0.0287183
0.0279997
0.027277
0.0265523
0.0258278
0.0251053
0.0243866
0.0236734
0.0229671
0.0222693
0.021581
0.0209034
0.0202369
0.019582
0.0189394
0.0183092
0.0176919
0.0170874
0.016496
0.0159176
0.0153522
0.0147996
0.0142597
0.0137322
0.013217
0.0127141
0.0122231
0.0117442
0.011277
0.0108215
0.0103777
0.00994524
0.00952418
0.00911438
0.00871573
0.00832815
0.00795153
0.00758577
0.00723078
0.00688647
0.00655272
0.00622944
0.00591653
0.00561387
0.00532135
0.00503886
0.00476628
0.00450348
0.00425035
0.00400675
0.00377254
0.0035476
0.00333178
0.00312492
0.0029269
0.00273754
0.0025567
0.00238421
0.00221991
0.00206362
0.00191517
0.00177438
0.00164105
0.00151501
0.00139605
0.00128398
0.00117858
0.00107964
0.000986955
0.000900298
0.000819448
0.000744177
0.000674255
0.000609452
0.000549534
0.000494268
0.000443416
0.000396745
0.000354026
0.000315029
0.00027953
0.000247308
0.000218147
0.000191836
0.00016817
0.000146952
0.000127989
0.000111099
9.61073e-05
8.28468e-05
7.11596e-05
6.08971e-05
5.19194e-05
4.40958e-05
3.73048e-05
3.14337e-05
2.63788e-05
2.20448e-05
1.83448e-05
1.51998e-05
1.25384e-05
1.02964e-05
8.41653e-06
6.8477e-06
5.54474e-06
4.46792e-06
3.58243e-06
2.85798e-06
2.26834e-06
1.79097e-06
1.40655e-06
1.09868e-06
8.53484e-07
6.59308e-07
5.06419e-07
3.86739e-07
2.93611e-07
2.2158e-07
1.6621e-07
1.23911e-07
9.18011e-08
6.7582e-08
4.94333e-08
3.59235e-08
2.59338e-08
1.85969e-08
1.32456e-08
9.36956e-09
6.5818e-09
4.59103e-09
3.17976e-09
2.18647e-09
1.49259e-09
1.01148e-09
6.80323e-10
4.5423e-10
3.00994e-10
1.97938e-10
1.2917e-10
8.36402e-11
5.3736e-11
3.42516e-11
2.16587e-11
1.35863e-11
8.45392e-12
5.21777e-12
3.19417e-12
1.93935e-12
1.16778e-12
6.97347e-13
4.12952e-13
2.42486e-13
1.41183e-13
8.1497e-14
4.6635e-14
2.64498e-14
1.48642e-14
8.27613e-15
4.56256e-15
0.0447841
0.0446958
0.0445479
0.044342
0.0440792
0.0437618
0.0433928
0.042975
0.0425115
0.042005
0.0414584
0.0408745
0.0402562
0.0396063
0.0389278
0.0382236
0.0374965
0.0367495
0.0359854
0.0352071
0.0344174
0.0336189
0.0328143
0.0320059
0.0311962
0.0303873
0.0295813
0.02878
0.0279851
0.0271982
0.0264206
0.0256533
0.0248973
0.024153
0.0234211
0.0227018
0.0219954
0.0213022
0.0206221
0.0199551
0.0193013
0.0186606
0.0180327
0.0174176
0.0168152
0.0162251
0.0156475
0.015082
0.0145286
0.0139872
0.0134578
0.0129402
0.0124343
0.0119401
0.0114576
0.0109866
0.0105271
0.0100792
0.00964263
0.00921746
0.00880361
0.00840104
0.0080097
0.00762952
0.00726044
0.00690241
0.00655535
0.00621919
0.00589387
0.00557929
0.00527538
0.00498206
0.00469921
0.00442676
0.00416458
0.00391259
0.00367066
0.00343868
0.00321651
0.00300402
0.00280107
0.00260752
0.00242321
0.00224796
0.00208161
0.00192397
0.00177486
0.00163406
0.00150136
0.00137656
0.00125941
0.00114968
0.00104712
0.000951488
0.000862513
0.000779935
0.000703479
0.000632867
0.000567823
0.000508069
0.000453327
0.000403318
0.000357767
0.000316401
0.000278952
0.000245156
0.000214755
0.000187498
0.000163145
0.000141462
0.000122224
0.000105219
9.0243e-05
7.71049e-05
6.56241e-05
5.56316e-05
4.697e-05
3.94934e-05
3.30671e-05
2.75675e-05
2.2882e-05
1.89079e-05
1.55528e-05
1.27335e-05
1.0376e-05
8.41408e-06
6.78961e-06
5.45136e-06
4.35459e-06
3.46043e-06
2.73537e-06
2.1506e-06
1.68161e-06
1.30759e-06
1.01101e-06
7.77219e-07
5.94005e-07
4.51287e-07
3.40794e-07
2.55782e-07
1.90787e-07
1.41412e-07
1.04145e-07
7.62025e-08
5.53917e-08
3.99967e-08
2.86854e-08
2.04327e-08
1.44541e-08
1.01532e-08
7.08151e-09
4.90404e-09
3.37144e-09
2.30091e-09
1.55884e-09
1.04822e-09
6.99571e-10
4.63342e-10
3.04528e-10
1.98599e-10
1.28505e-10
8.24957e-11
5.25388e-11
3.31926e-11
2.08013e-11
1.29303e-11
7.97207e-12
4.87483e-12
2.95633e-12
1.778e-12
1.06042e-12
6.27148e-13
3.67776e-13
2.1384e-13
1.23268e-13
7.04397e-14
3.9896e-14
2.23911e-14
1.24515e-14
6.85584e-15
0.0529528
0.0528409
0.0526605
0.0524137
0.0521012
0.0517261
0.051292
0.0508026
0.0502614
0.049672
0.0490378
0.0483622
0.0476487
0.0469007
0.0461215
0.0453145
0.044483
0.0436304
0.0427599
0.0418747
0.0409778
0.0400721
0.0391606
0.0382458
0.0373303
0.0364164
0.0355062
0.0346016
0.0337043
0.0328159
0.0319376
0.0310703
0.0302148
0.0293718
0.0285415
0.0277244
0.0269205
0.02613
0.0253528
0.024589
0.0238384
0.023101
0.0223765
0.0216649
0.0209659
0.0202794
0.0196054
0.0189436
0.0182941
0.0176567
0.0170314
0.0164181
0.0158169
0.0152277
0.0146504
0.0140852
0.0135319
0.0129906
0.0124614
0.0119441
0.0114389
0.0109457
0.0104646
0.00999546
0.00953841
0.00909341
0.00866046
0.00823955
0.00783066
0.0074338
0.00704893
0.00667603
0.00631508
0.00596603
0.00562886
0.00530351
0.00498994
0.00468806
0.00439783
0.00411915
0.00385195
0.0035961
0.00335151
0.00311805
0.00289557
0.00268392
0.00248294
0.00229243
0.00211221
0.00194204
0.00178172
0.00163098
0.00148957
0.00135722
0.00123364
0.00111853
0.00101156
0.00091242
0.000820777
0.000736295
0.000658634
0.00058745
0.000522396
0.000463126
0.000409295
0.000360562
0.000316588
0.000277042
0.000241603
0.000209956
0.000181798
0.000156837
0.000134795
0.000115406
9.84173e-05
8.35934e-05
7.07119e-05
5.95656e-05
4.99625e-05
4.17255e-05
3.46919e-05
2.87134e-05
2.36556e-05
1.93971e-05
1.58289e-05
1.28541e-05
1.03864e-05
8.34997e-06
6.67825e-06
5.31321e-06
4.20461e-06
3.30924e-06
2.59015e-06
2.01593e-06
1.56006e-06
1.20028e-06
9.18031e-07
6.97945e-07
5.27391e-07
3.96059e-07
2.95572e-07
2.19179e-07
1.61481e-07
1.18194e-07
8.594e-08
6.20687e-08
4.45223e-08
3.17169e-08
2.24379e-08
1.57613e-08
1.09923e-08
7.61172e-09
5.23244e-09
3.57041e-09
2.41823e-09
1.62555e-09
1.08441e-09
7.17879e-10
4.71557e-10
3.07338e-10
1.98731e-10
1.27484e-10
8.11263e-11
5.12104e-11
3.20642e-11
1.99127e-11
1.22649e-11
7.49207e-12
4.53866e-12
2.7266e-12
1.6243e-12
9.59486e-13
5.61978e-13
3.26348e-13
1.87885e-13
1.07227e-13
6.06556e-14
3.40015e-14
1.88874e-14
1.03889e-14
0.0632067
0.0630672
0.0628487
0.0625538
0.0621832
0.0617406
0.0612303
0.0606569
0.0600244
0.0593373
0.0585997
0.0578157
0.0569895
0.056125
0.0552263
0.0542972
0.0533417
0.0523635
0.0513662
0.0503535
0.0493288
0.0482953
0.0472561
0.0462141
0.0451719
0.044132
0.0430966
0.0420676
0.0410467
0.0400354
0.0390348
0.0380458
0.0370693
0.0361056
0.0351551
0.034218
0.0332944
0.0323844
0.0314879
0.0306048
0.0297349
0.0288782
0.0280345
0.0272035
0.0263851
0.0255792
0.0247857
0.0240045
0.0232354
0.0224786
0.0217339
0.0210014
0.020281
0.0195728
0.0188769
0.0181933
0.017522
0.0168632
0.0162168
0.015583
0.0149619
0.0143535
0.013758
0.0131754
0.0126057
0.0120491
0.0115057
0.0109755
0.0104585
0.00995498
0.00946485
0.00898823
0.00852516
0.0080757
0.00763991
0.00721783
0.00680949
0.00641491
0.00603411
0.0056671
0.00531386
0.00497438
0.0046486
0.00433648
0.00403793
0.00375286
0.00348114
0.00322264
0.00297719
0.0027446
0.00252466
0.00231713
0.00212175
0.00193824
0.00176628
0.00160555
0.00145568
0.0013163
0.00118702
0.00106745
0.000957176
0.000855771
0.000762804
0.000677837
0.000600429
0.000530138
0.000466522
0.000409146
0.00035758
0.000311401
0.0002702
0.000233578
0.000201152
0.000172555
0.000147435
0.000125462
0.000106322
8.97218e-05
7.5387e-05
6.3064e-05
5.25189e-05
4.35369e-05
3.59228e-05
2.94993e-05
2.4107e-05
1.96031e-05
1.58605e-05
1.27669e-05
1.02232e-05
8.14288e-06
6.45091e-06
5.08245e-06
3.98192e-06
3.102e-06
2.40261e-06
1.85001e-06
1.41604e-06
1.07731e-06
8.14562e-07
6.12072e-07
4.57018e-07
3.39057e-07
2.49903e-07
1.82978e-07
1.33085e-07
9.61427e-08
6.8976e-08
4.9144e-08
3.47702e-08
2.4426e-08
1.70359e-08
1.17956e-08
8.1073e-09
5.53093e-09
3.745e-09
2.51654e-09
1.67811e-09
1.11038e-09
7.28997e-10
4.74847e-10
3.0685e-10
1.96706e-10
1.25084e-10
7.88965e-11
4.93581e-11
3.06256e-11
1.88459e-11
1.1501e-11
6.96024e-12
4.17699e-12
2.48563e-12
1.46664e-12
8.58041e-13
4.97693e-13
2.86191e-13
1.63138e-13
9.21756e-14
5.16136e-14
2.86419e-14
1.57399e-14
0.0758036
0.0756319
0.0753693
0.0750189
0.0745816
0.0740616
0.073464
0.0727942
0.0720571
0.0712578
0.0704013
0.0694926
0.0685364
0.0675376
0.0665009
0.0654308
0.0643318
0.0632082
0.0620642
0.0609039
0.0597309
0.058549
0.0573613
0.0561711
0.0549812
0.0537941
0.0526121
0.0514372
0.0502709
0.0491148
0.0479699
0.0468372
0.0457172
0.0446103
0.043517
0.0424372
0.0413711
0.0403186
0.0392796
0.0382539
0.0372414
0.0362419
0.0352551
0.0342808
0.033319
0.0323695
0.0314321
0.0305067
0.0295934
0.028692
0.0278027
0.0269254
0.0260602
0.0252071
0.0243663
0.0235379
0.0227221
0.0219188
0.0211283
0.0203508
0.0195864
0.0188352
0.0180975
0.0173733
0.016663
0.0159666
0.0152843
0.0146163
0.0139629
0.013324
0.0127001
0.0120912
0.0114974
0.0109191
0.0103564
0.00980934
0.0092782
0.00876309
0.00826418
0.00778157
0.00731539
0.00686573
0.00643266
0.00601623
0.00561647
0.00523338
0.00486693
0.00451706
0.00418366
0.00386662
0.00356577
0.00328091
0.00301179
0.00275815
0.00251968
0.002296
0.00208675
0.00189149
0.0017098
0.00154121
0.00138523
0.00124135
0.00110903
0.000987722
0.000876879
0.000775928
0.0006843
0.000601422
0.000526726
0.000459651
0.000399644
0.000346166
0.000298692
0.000256717
0.000219756
0.000187346
0.000159048
0.000134449
0.000113159
9.48177e-05
7.90892e-05
6.56648e-05
5.42621e-05
4.46239e-05
3.6518e-05
2.97353e-05
2.40896e-05
1.9415e-05
1.55652e-05
1.2412e-05
9.84367e-06
7.76347e-06
6.08831e-06
4.74729e-06
3.68013e-06
2.83602e-06
2.1724e-06
1.6539e-06
1.25132e-06
9.40817e-07
7.02866e-07
5.21705e-07
3.84686e-07
2.81768e-07
2.05007e-07
1.48143e-07
1.06312e-07
7.57594e-08
5.36063e-08
3.76597e-08
2.62652e-08
1.81843e-08
1.24964e-08
8.52345e-09
5.76966e-09
3.87578e-09
2.5835e-09
1.7087e-09
1.12126e-09
7.29955e-10
4.71423e-10
3.0201e-10
1.91914e-10
1.20959e-10
7.56136e-11
4.68777e-11
2.88218e-11
1.75729e-11
1.06247e-11
6.36982e-12
3.78665e-12
2.23195e-12
1.30436e-12
7.55736e-13
4.34089e-13
2.47168e-13
1.39501e-13
7.80322e-14
4.32611e-14
2.3753e-14
0.0910468
0.0908374
0.090524
0.0901101
0.089597
0.0889893
0.0882931
0.0875145
0.0866592
0.0857333
0.0847426
0.0836928
0.0825898
0.0814391
0.0802461
0.0790163
0.0777547
0.0764662
0.0751557
0.0738276
0.072486
0.071135
0.0697782
0.0684189
0.0670602
0.0657045
0.0643544
0.0630117
0.0616782
0.0603552
0.0590438
0.0577448
0.0564588
0.0551861
0.0539269
0.0526814
0.0514494
0.0502309
0.0490257
0.0478336
0.0466543
0.0454876
0.0443332
0.043191
0.0420607
0.0409422
0.0398353
0.03874
0.0376561
0.0365838
0.035523
0.0344737
0.0334362
0.0324104
0.0313965
0.0303948
0.0294053
0.0284283
0.027464
0.0265126
0.0255744
0.0246496
0.0237385
0.0228413
0.0219584
0.02109
0.0202365
0.019398
0.018575
0.0177677
0.0169765
0.0162017
0.0154437
0.0147027
0.0139791
0.0132733
0.0125856
0.0119163
0.0112657
0.0106341
0.0100219
0.00942926
0.00885647
0.00830375
0.00777127
0.0072592
0.00676765
0.00629669
0.00584636
0.00541663
0.00500744
0.00461868
0.00425016
0.00390166
0.00357289
0.0032635
0.00297309
0.00270124
0.00244746
0.00221123
0.00199199
0.00178912
0.00160199
0.00142993
0.00127224
0.0011282
0.000997089
0.000878165
0.000770686
0.00067391
0.000587101
0.000509535
0.000440501
0.000379311
0.000325298
0.000277822
0.000236274
0.000200073
0.000168674
0.000141565
0.000118269
9.83454e-05
8.13889e-05
6.7029e-05
5.49296e-05
4.47873e-05
3.63306e-05
2.9317e-05
2.35319e-05
1.87862e-05
1.49151e-05
1.17754e-05
9.2436e-06
7.21427e-06
5.59748e-06
4.31716e-06
3.30952e-06
2.52143e-06
1.90891e-06
1.43612e-06
1.07351e-06
7.97229e-07
5.88135e-07
4.30975e-07
3.13673e-07
2.26729e-07
1.62744e-07
1.15993e-07
8.2083e-08
5.76673e-08
4.02185e-08
2.78423e-08
1.91309e-08
1.30461e-08
8.82892e-09
5.92904e-09
3.95074e-09
2.61193e-09
1.71317e-09
1.11473e-09
7.1952e-10
4.60673e-10
2.92546e-10
1.84258e-10
1.15097e-10
7.13005e-11
4.38015e-11
2.66831e-11
1.61183e-11
9.65429e-12
5.73358e-12
3.37613e-12
1.97099e-12
1.14078e-12
6.54557e-13
3.72306e-13
2.0991e-13
1.173e-13
6.49708e-14
3.56423e-14
0.109282
0.109029
0.108658
0.108171
0.107573
0.106866
0.10606
0.105159
0.104172
0.103104
0.101964
0.100757
0.0994897
0.0981694
0.096802
0.0953937
0.0939504
0.0924777
0.0909809
0.089465
0.0879347
0.0863943
0.0848477
0.0832985
0.0817499
0.0802045
0.0786648
0.0771329
0.0756104
0.0740985
0.0725985
0.0711109
0.0696363
0.068175
0.0667272
0.0652927
0.0638716
0.0624636
0.0610684
0.0596858
0.0583154
0.0569569
0.0556101
0.0542747
0.0529503
0.0516369
0.0503342
0.0490422
0.0477608
0.0464899
0.0452295
0.0439799
0.042741
0.0415129
0.040296
0.0390903
0.0378961
0.0367136
0.0355433
0.0343852
0.0332398
0.0321075
0.0309884
0.0298832
0.028792
0.0277154
0.0266538
0.0256076
0.0245773
0.0235634
0.0225663
0.0215866
0.0206248
0.0196815
0.0187572
0.0178524
0.0169678
0.0161038
0.0152611
0.0144402
0.0136417
0.012866
0.0121136
0.0113851
0.0106808
0.0100012
0.00934648
0.00871706
0.00811314
0.00753489
0.0069824
0.00645571
0.00595477
0.00547947
0.00502956
0.00460477
0.00420476
0.00382911
0.00347731
0.00314882
0.002843
0.00255915
0.00229654
0.00205435
0.00183173
0.00162781
0.00144166
0.00127234
0.0011189
0.000980362
0.000855764
0.000744143
0.000644549
0.000556051
0.000477743
0.000408748
0.000348227
0.000295378
0.000249437
0.000209688
0.000175458
0.000146124
0.00012111
9.98855e-05
8.19692e-05
6.69238e-05
5.43578e-05
4.3919e-05
3.52947e-05
2.82093e-05
2.24211e-05
1.77199e-05
1.39237e-05
1.08771e-05
8.44705e-06
6.52045e-06
5.00253e-06
3.81414e-06
2.88972e-06
2.17539e-06
1.62704e-06
1.20891e-06
8.92258e-07
6.54097e-07
4.76227e-07
3.44324e-07
2.47208e-07
1.76223e-07
1.24718e-07
8.76253e-08
6.11117e-08
4.23038e-08
2.90643e-08
1.98168e-08
1.3408e-08
9.0017e-09
5.99625e-09
3.96279e-09
2.59811e-09
1.68976e-09
1.09012e-09
6.97555e-10
4.42707e-10
2.78654e-10
1.73941e-10
1.07674e-10
6.6095e-11
4.0231e-11
2.42813e-11
1.45307e-11
8.62165e-12
5.07188e-12
2.95806e-12
1.71037e-12
9.80385e-13
5.5707e-13
3.13769e-13
1.75169e-13
9.69366e-14
5.31331e-14
0.130898
0.130594
0.130155
0.129587
0.128891
0.128074
0.127144
0.126108
0.124973
0.123749
0.122442
0.12106
0.119612
0.118104
0.116543
0.114938
0.113293
0.111617
0.109914
0.108191
0.106452
0.104702
0.102945
0.101186
0.0994265
0.0976706
0.0959206
0.0941783
0.0924455
0.0907235
0.0890133
0.0873154
0.0856304
0.0839585
0.0822996
0.0806538
0.0790207
0.0774001
0.0757916
0.0741949
0.0726095
0.071035
0.069471
0.0679173
0.0663734
0.0648391
0.0633142
0.0617986
0.060292
0.0587945
0.057306
0.0558267
0.0543565
0.0528956
0.0514442
0.0500025
0.0485708
0.0471494
0.0457386
0.0443387
0.0429502
0.0415735
0.0402089
0.0388571
0.0375184
0.0361935
0.0348829
0.0335873
0.0323071
0.0310432
0.0297963
0.028567
0.0273561
0.0261645
0.0249929
0.0238421
0.0227132
0.0216068
0.0205239
0.0194654
0.0184321
0.0174249
0.0164446
0.0154921
0.0145681
0.0136734
0.0128086
0.0119743
0.011171
0.0103993
0.0096595
0.00895186
0.00827658
0.00763367
0.0070231
0.00644475
0.00589838
0.00538363
0.00490006
0.00444711
0.00402411
0.00363032
0.00326489
0.00292688
0.00261528
0.00232903
0.00206698
0.00182797
0.00161077
0.00141414
0.00123683
0.00107758
0.000935126
0.00080823
0.000695671
0.000596262
0.000508863
0.00043237
0.00036573
0.000307946
0.000258084
0.000215266
0.000178681
0.000147581
0.000121279
9.91509e-05
8.0639e-05
6.52353e-05
5.24887e-05
4.20003e-05
3.34196e-05
2.64404e-05
2.07975e-05
1.62628e-05
1.26409e-05
9.76607e-06
7.49854e-06
5.72146e-06
4.3378e-06
3.26758e-06
2.44532e-06
1.81786e-06
1.34232e-06
9.84432e-07
7.16986e-07
5.18552e-07
3.72385e-07
2.65505e-07
1.87931e-07
1.32048e-07
9.20951e-08
6.37499e-08
4.3795e-08
2.98566e-08
2.01972e-08
1.35566e-08
9.02779e-09
5.96428e-09
3.90886e-09
2.54115e-09
1.6386e-09
1.04798e-09
6.64734e-10
4.18151e-10
2.60848e-10
1.6136e-10
9.89774e-11
6.01996e-11
3.63039e-11
2.17071e-11
1.28684e-11
7.56327e-12
4.407e-12
2.54572e-12
1.45781e-12
8.27549e-13
4.65673e-13
2.59733e-13
1.43607e-13
7.86479e-14
0.156317
0.155954
0.155439
0.154776
0.153971
0.15303
0.151961
0.150773
0.149475
0.148076
0.146584
0.14501
0.143361
0.141645
0.139873
0.13805
0.136185
0.134286
0.132357
0.130407
0.128439
0.12646
0.124473
0.122484
0.120494
0.118508
0.116528
0.114555
0.112592
0.11064
0.108699
0.10677
0.104854
0.102951
0.10106
0.0991813
0.0973147
0.0954597
0.0936158
0.0917824
0.0899591
0.0881453
0.0863405
0.0845443
0.0827562
0.0809758
0.079203
0.0774373
0.0756785
0.0739267
0.0721816
0.0704432
0.0687116
0.066987
0.0652693
0.0635589
0.061856
0.0601609
0.0584739
0.0567954
0.0551259
0.0534657
0.0518156
0.0501759
0.0485473
0.0469305
0.0453262
0.0437351
0.0421582
0.0405962
0.0390501
0.0375209
0.0360096
0.0345173
0.0330452
0.0315944
0.0301661
0.0287617
0.0273824
0.0260294
0.0247042
0.023408
0.0221421
0.0209079
0.0197064
0.018539
0.0174068
0.0163107
0.015252
0.0142313
0.0132495
0.0123073
0.011405
0.0105432
0.00972209
0.00894175
0.00820218
0.00750321
0.0068445
0.00622558
0.0056458
0.00510442
0.00460052
0.00413305
0.00370086
0.00330268
0.00293714
0.0026028
0.00229814
0.0020216
0.00177158
0.00154643
0.00134453
0.00116423
0.00100391
0.000861977
0.00073691
0.000627202
0.000531415
0.00044818
0.000376204
0.000314272
0.00026125
0.000216092
0.00017783
0.000145585
0.00011856
9.60337e-05
7.73631e-05
6.19763e-05
4.93694e-05
3.9101e-05
3.07875e-05
2.40978e-05
1.87481e-05
1.44967e-05
1.11397e-05
8.50609e-06
6.45351e-06
4.86443e-06
3.64248e-06
2.70927e-06
2.00151e-06
1.46849e-06
1.06994e-06
7.74067e-07
5.56024e-07
3.96522e-07
2.80712e-07
1.97261e-07
1.37585e-07
9.52389e-08
6.54244e-08
4.45977e-08
3.01648e-08
2.02429e-08
1.34772e-08
8.90122e-09
5.8317e-09
3.78974e-09
2.44267e-09
1.56149e-09
9.8994e-10
6.22372e-10
3.88011e-10
2.39867e-10
1.47033e-10
8.93633e-11
5.38505e-11
3.21731e-11
1.90571e-11
1.1191e-11
6.51506e-12
3.76006e-12
2.15122e-12
1.22006e-12
6.85917e-13
3.82236e-13
2.11158e-13
1.15547e-13
0.185997
0.185567
0.184961
0.184192
0.183261
0.182178
0.180952
0.179593
0.178112
0.176518
0.174821
0.173033
0.171162
0.169219
0.167212
0.165152
0.163046
0.160903
0.158729
0.156531
0.154316
0.152088
0.149853
0.147614
0.145375
0.14314
0.140911
0.13869
0.136478
0.134277
0.132087
0.129909
0.127743
0.12559
0.123448
0.121317
0.119197
0.117088
0.114989
0.112898
0.110816
0.108741
0.106674
0.104613
0.102558
0.100508
0.0984625
0.0964218
0.0943852
0.0923524
0.0903233
0.0882976
0.0862754
0.0842566
0.0822414
0.0802297
0.0782219
0.0762181
0.0742188
0.0722241
0.0702347
0.0682509
0.0662733
0.0643025
0.0623393
0.0603844
0.0584386
0.0565029
0.0545783
0.0526658
0.0507667
0.0488821
0.0470135
0.0451622
0.0433299
0.0415179
0.0397282
0.0379623
0.036222
0.0345091
0.0328256
0.0311733
0.0295541
0.0279699
0.0264226
0.0249139
0.0234457
0.0220196
0.0206373
0.0193002
0.0180098
0.0167671
0.0155732
0.014429
0.0133352
0.0122924
0.0113009
0.0103608
0.00947215
0.00863453
0.00784747
0.0071103
0.00642211
0.0057818
0.00518807
0.0046395
0.00413447
0.00367126
0.00324803