/*--------------------------------*- C++ -*----------------------------------*\
  =========                 |
  \\      /  F ield         | OpenFOAM: The Open Source CFD Toolbox
   \\    /   O peration     | Website:  https://openfoam.org
    \\  /    A nd           | Version:  7
     \\/     M anipulation  |
\*---------------------------------------------------------------------------*/
FoamFile
{
    version     2.0;
    format      ascii;
    class       volScalarField;
    location    "1.6";
    object      alpha.water;
}
// * * * * * * * * * * * * * * * * * * * * * * * * * * * * * * * * * * * * * //

dimensions      [0 0 0 0 0 0 0];

internalField   nonuniform List<scalar> 
6000
(
0
0
0
0
0
0
0
0
0
0
0
0
0
0
0
0
0
0
0
0
0
0
0
0
0
0
0
0
0
0
0
0
0
0
0
0
0
0
0
0
0
0
0
0
0
0
0
0
0
0
0
0
0
0
0
0
0
0
0
0
0
0
0
0
0
0
0
0
0
0
0
0
0
0
0
0
0
0
0
0
0
0
0
0
0
0
0
0
0
0
0
0
0
0
0
0
0
0
0
0
0
0
0
0
0
0
0
0
0
0
0
0
0
0
0
0
0
0
0
0
0
0
0
0
0
0
0
0
0
0
0
0
0
0
0
0
0
0
0
0
0
0
0
0
0
0
0
0
0
0
0
0
0
0
0
0
0
0
0
0
0
0
0
0
0
0
0
0
0
0
0
0
0
0
0
0
0
0
0
0
0
0
0
0
0
0
0
0
0
0
0
0
0
0
0
0
0
0
0
0
0
0
0
0
0
0
0
0
0
0
0
0
0
0
0
0
0
0
0
0
0
0
0
0
0
0
0
0
0
0
0
0
0
0
0
0
0
0
0
0
0
0
0
0
0
0
0
0
0
0
0
0
0
0
0
0
0
0
0
0
0
0
0
0
0
0
0
0
0
0
0
0
0
0
0
0
0
0
0
0
0
0
0
0
0
0
0
0
0
0
0
0
0
0
0
0
0
0
0
0
0
0
0
0
0
0
0
0
0
0
0
0
0
0
0
0
0
0
0
0
0
0
0
0
0
0
0
0
0
0
0
0
0
0
0
0
0
0
0
0
0
0
0
0
0
0
0
0
0
0
0
0
0
0
0
0
0
0
0
0
0
0
0
0
0
0
0
0
0
0
0
0
0
0
0
0
0
0
0
0
0
0
0
0
0
0
0
0
0
0
0
0
0
0
0
0
0
0
0
0
0
0
0
0
0
0
0
0
0
3.3043312396847e-52
1.7000489350645e-50
4.3432129308812e-49
7.3403670101201e-48
9.230876428357e-47
9.2124966275891e-46
7.5998446637755e-45
5.3300830204432e-44
3.2439584565727e-43
1.7403570704729e-42
8.3327114479749e-42
3.5962662905615e-41
1.4106066867921e-40
5.0633995927199e-40
1.6730364100131e-39
5.1142763604335e-39
1.4527138766863e-38
3.8491052118208e-38
9.5454241860859e-38
2.2222630062878e-37
4.8700277908716e-37
1.0070621717352e-36
1.9693446508303e-36
3.6491457277542e-36
6.4187652294088e-36
1.0735498367024e-35
1.709869330626e-35
2.5970509033222e-35
3.7664699091883e-35
5.2220666984365e-35
6.9292039433407e-35
8.8085055223144e-35
1.073773415768e-34
1.2563191537554e-34
1.41196322525e-34
1.525522173429e-34
1.5856203264472e-34
1.5865694245634e-34
1.5292314448585e-34
1.4206906984338e-34
1.2728579468783e-34
1.1003770394601e-34
9.1832700004667e-35
7.4019752893158e-35
5.7647501630692e-35
4.3398252183361e-35
3.1592839318072e-35
2.224771180169e-35
1.5160311134869e-35
9.9998577792294e-36
6.3866109329089e-36
3.9505525952879e-36
2.3673787642658e-36
1.3746893252001e-36
7.7368684405181e-37
4.2212373266605e-37
2.2331172577088e-37
1.1456640620762e-37
5.7009545015478e-38
2.7519898258334e-38
1.2888827487058e-38
5.857334991859e-39
2.5831746392878e-39
1.1056457413733e-39
4.5932787494283e-40
1.8522712608603e-40
7.2508136983848e-41
2.7554295296334e-41
1.0165461221658e-41
3.6409085035091e-42
1.266023406996e-42
4.2738807402877e-43
1.4007020935669e-43
4.4565709059173e-44
1.376483400148e-44
4.1270022625928e-45
1.2010606091051e-45
3.3925730361491e-46
9.3001407857523e-47
2.4740150039332e-47
6.3858439092967e-48
1.5991241869743e-48
3.8844792082604e-49
9.151720390599e-50
2.0908280313461e-50
4.6312610696528e-51
9.9439424330472e-52
2.0691995631731e-52
4.171856809316e-53
8.1476225401396e-54
1.8833735791206e-54
0
0
0
0
0
0
0
-3.0502341075404e-42
-1.4235550248391e-40
-3.285645671153e-39
-4.9970857505123e-38
-5.6291113991485e-37
-5.0042429148263e-36
-3.6519114307355e-35
-2.2459682175688e-34
-1.1853450175274e-33
-5.4344587918744e-33
-2.1803058605387e-32
-7.6715913021212e-32
-2.3560722307857e-31
-6.2063468022514e-31
-1.335039229552e-30
-1.9722310782284e-30
1.8005182007859e-31
1.527985381435e-29
7.3382204268056e-29
2.5073661808511e-28
7.1878618430648e-28
1.8248103084685e-27
4.2080838853349e-27
8.9424610002123e-27
1.7675043763071e-26
3.2705496891393e-26
5.6931967774985e-26
9.3591613822329e-26
1.4575831512773e-25
2.1562873865664e-25
3.037155931976e-25
4.0814332562235e-25
5.2427096308492e-25
6.4482440481618e-25
7.6060669177879e-25
8.6170006723584e-25
9.3892886108034e-25
9.8526847235267e-25
9.9689286720356e-25
9.736475944264e-25
9.1888327621616e-25
8.387365689115e-25
7.4105707431999e-25
6.3422473125966e-25
5.2608248623951e-25
4.2314245898252e-25
3.3013780546242e-25
2.4991232803999e-25
1.8358211606381e-25
1.3087420524482e-25
9.0544039083321e-26
6.0789093266052e-26
3.9601550471836e-26
2.5030444928725e-26
1.5347481679143e-26
9.1276138373614e-27
5.2646374408114e-27
2.9445063142057e-27
1.596741814502e-27
8.394307372377e-28
4.2777699144222e-28
2.1129601022996e-28
1.0115084559568e-28
4.6926545671039e-29
2.1096370616176e-29
9.1898450323645e-30
3.8787539348358e-30
1.5861070882911e-30
6.2834937677167e-31
2.4113998890592e-31
8.9640794568696e-32
3.2275802689881e-32
1.1255028592567e-32
3.800790260552e-33
1.2428371614058e-33
3.9347583682164e-34
1.2059537162967e-34
3.5775972512093e-35
1.0271498842092e-35
2.8535433825798e-36
7.6694300697917e-37
1.9938011157606e-37
5.0123909398013e-38
1.2182830637439e-38
2.8620587606265e-39
6.4970083272832e-40
1.424689832873e-40
3.0168669641763e-41
6.1668958928372e-42
1.2164253854426e-42
2.3143755845927e-43
4.2454068348615e-44
9.03083576677e-45
0
0
0
0
0
0
-1.3531080602874e-40
-6.6550644973676e-39
-1.6213335575836e-37
-2.6085045301316e-36
-3.1175890426827e-35
-2.9521234593891e-34
-2.3068154121563e-33
-1.5297708385249e-32
-8.7873730906301e-32
-4.4408779246194e-31
-1.9987421313882e-30
-8.0905697720118e-30
-2.969027303492e-29
-9.9435658962775e-29
-3.056112209932e-28
-8.6599507585693e-28
-2.2713030944232e-27
-5.5317054826877e-27
-1.2543513252528e-26
-2.6537374294484e-26
-5.2459044475896e-26
-9.697590082596e-26
-1.6764634370161e-25
-2.7073560416432e-25
-4.0733921816954e-25
-5.6797922202438e-25
-7.266409699121e-25
-8.3610554875525e-25
-8.2701519241964e-25
-6.1295208807081e-25
-1.0264915977665e-25
7.8160456593521e-25
2.0826920507952e-24
3.789716508231e-24
5.8270406906837e-24
8.0556618190601e-24
1.0288348340527e-23
1.2316302477674e-23
1.3941884091864e-23
1.5010194935187e-23
1.543261942917e-23
1.5197594306608e-23
1.4367182023469e-23
1.3061409929636e-23
1.1434855140803e-23
9.6510342096943e-24
7.8597319219612e-24
6.1808480614686e-24
4.6962715224429e-24
3.449335804059e-24
2.4500232493828e-24
1.6834597158534e-24
1.1193195410843e-24
7.2032012560735e-25
4.487477096382e-25
2.7067991930716e-25
1.5810580161649e-25
8.9439469218254e-26
4.9005415109957e-26
2.6009342604561e-26
1.3372605977253e-26
6.6608474827147e-27
3.2143260902627e-27
1.5028397645324e-27
6.807822166948e-28
2.9880111006937e-28
1.2706782008322e-28
5.2355742866068e-29
2.090063369019e-29
8.0836375221978e-30
3.0289145826774e-30
1.0994490976172e-30
3.865810402141e-31
1.3165787313806e-31
4.3426160021272e-32
1.3870926125599e-32
4.2899625168354e-33
1.2844976327208e-33
3.7228503607051e-34
1.0442479873661e-34
2.8342175575028e-35
7.4416953406316e-36
1.889814243403e-36
4.6405081123305e-37
1.1015207451473e-37
2.5268096457301e-38
5.5997287834948e-39
1.1984706733001e-39
2.4762468162352e-40
4.9373608333433e-41
9.496115579656e-42
1.7609609550832e-42
3.1469820736975e-43
6.4833031413251e-44
0
0
0
0
0
4.492073888869e-42
-3.0702859789893e-39
-1.542579899097e-37
-3.750731611558e-36
-5.9911602914755e-35
-7.097192908168e-34
-6.6580638018319e-33
-5.1547105463192e-32
-3.3880929503906e-31
-1.9300378953757e-30
-9.6795237130097e-30
-4.326864654918e-29
-1.741134423847e-28
-6.3586740249066e-28
-2.1218893433636e-27
-6.5070908780069e-27
-1.8427916778755e-26
-4.8395613394073e-26
-1.182872690895e-25
-2.6990834939418e-25
-5.7649056324775e-25
-1.1551550488988e-24
-2.175536937599e-24
-3.8566231868729e-24
-6.4419668491848e-24
-1.0144970394181e-23
-1.506271722258e-23
-2.106901923367e-23
-2.7712225717681e-23
-3.415526688213e-23
-3.9197461708503e-23
-4.1404702690042e-23
-3.9346754660307e-23
-3.1904364546855e-23
-1.8576878324518e-23
2.9366598336177e-25
2.3454904409048e-23
4.8869493149765e-23
7.4018536348324e-23
9.6318392492404e-23
1.1355455557182e-22
1.2423308603789e-22
1.2777532239046e-22
1.2452583411454e-22
1.1559181378125e-22
1.0256970619391e-22
8.7232482633861e-23
7.1246874024291e-23
5.5969255180164e-23
4.2340783610397e-23
3.0876067723143e-23
2.172153676781e-23
1.475222835836e-23
9.6776578019575e-24
6.135341973045e-24
3.7604832746962e-24
2.2291575540297e-24
1.2783953620973e-24
7.0947036997074e-25
3.8110955852434e-25
1.9819834779993e-25
9.9806893910767e-26
4.8673853698516e-26
2.2991082861673e-26
1.0519510690082e-26
4.6627119403767e-27
2.0022305434853e-27
8.3298823324048e-28
3.3575412777523e-28
1.311178377419e-28
4.9608066118971e-29
1.8183487640078e-29
6.4567341473013e-30
2.2208957455556e-30
7.3991868498813e-31
2.3874466225116e-31
7.4597239695417e-32
2.2567788676804e-32
6.6094033999673e-33
1.8735457974137e-33
5.1393564974076e-34
1.3639570366477e-34
3.501358676635e-35
8.691684173344e-36
2.0858391973438e-36
4.8376636606123e-37
1.0839936062543e-37
2.3458571521933e-38
4.9011339884963e-39
9.8818056489111e-40
1.9219088692978e-40
3.6039998652819e-41
6.512936269943e-42
1.133648632734e-42
2.2614079141747e-43
0
0
0
0
0
1.1225800907086e-40
-3.4234305912995e-38
-1.7741587284351e-36
-4.3251401957431e-35
-6.882844365877e-34
-8.1044262464848e-33
-7.5500663225067e-32
-5.8024834564504e-31
-3.7856299218789e-30
-2.1407150484624e-29
-1.0659486269376e-28
-4.7320647371576e-28
-1.891598758465e-27
-6.864695283273e-27
-2.2771259222786e-26
-6.9442600989389e-26
-1.9564597949024e-25
-5.1139454448781e-25
-1.2447074630667e-24
-2.8299536931816e-24
-6.0267543235497e-24
-1.205056155238e-23
-2.2668748801272e-23
-4.0186235488194e-23
-6.7227398381034e-23
-1.0623647710256e-22
-1.5868315412339e-22
-2.2407310300545e-22
-2.9899796116275e-22
-3.7656252603436e-22
-4.4653716328413e-22
-4.9645881063187e-22
-5.1365173870601e-22
-4.8782669395298e-22
-4.1365460625021e-22
-2.9260987784252e-22
-1.335005332037e-22
4.8571616357037e-23
2.3464829101192e-22
4.051873937852e-22
5.4338877851543e-22
6.3780713456197e-22
6.8371999576937e-22
6.830801771859e-22
6.432476058553e-22
5.7495716788959e-22
4.9007790882052e-22
3.9965656032996e-22
3.1256535852529e-22
2.3486287720572e-22
1.6979336013726e-22
1.1823564998864e-22
7.9377025798456e-23
5.1414825603567e-23
3.2151766187741e-23
1.9421313373515e-23
1.1337332409114e-23
6.3984652006138e-24
3.492407008009e-24
1.8441237934549e-24
9.4229435921097e-25
4.6603053295591e-25
2.2313081279886e-25
1.0344164679716e-25
4.6439039622414e-26
2.0191689941019e-26
8.5035914051161e-27
3.4689681270865e-27
1.3708311650955e-27
5.2476002120963e-28
1.9459339107772e-28
6.9899450500655e-29
2.4320696394159e-29
8.1960332360875e-30
2.674955492547e-30
8.4540565562739e-31
2.5869680234375e-31
7.6634956130948e-32
2.1973354267571e-32
6.0969696507412e-33
1.6367617600228e-33
4.250176262177e-34
1.0672477801252e-34
2.5908216534594e-35
6.0784208649241e-36
1.3777855897476e-36
3.0161705789135e-37
6.3745266956347e-38
1.3001103377985e-38
2.5577761172676e-39
4.8516712715289e-40
8.8684765019082e-41
1.5613585931275e-41
2.6460819465144e-42
5.1091115927684e-43
0
0
0
0
4.398627177455e-52
1.3980748637693e-39
-2.4920242087932e-37
-1.3447789940904e-35
-3.295328644439e-34
-5.2316934130638e-33
-6.1289789731932e-32
-5.673944747797e-31
-4.330827002705e-30
-2.8054774417691e-29
-1.5750679400445e-28
-7.7865792967139e-28
-3.4320136067906e-27
-1.362203514959e-26
-4.9088322348115e-26
-1.6170230630466e-25
-4.8972590452482e-25
-1.3703102992326e-24
-3.5575119281289e-24
-8.6004668808874e-24
-1.9423398277139e-23
-4.1091972951473e-23
-8.1632252080551e-23
-1.5259585246543e-22
-2.6888811003954e-22
-4.4729400935322e-22
-7.0327169878221e-22
-1.046019873716e-21
-1.4725323520786e-21
-1.9621357366794e-21
-2.4735317823209e-21
-2.9462861275346e-21
-3.3078316713135e-21
-3.4855091638467e-21
-3.4214042810986e-21
-3.0864077947247e-21
-2.4896041878792e-21
-1.6800324705011e-21
-7.3983826482848e-22
2.2978292250083e-22
1.1264638098455e-21
1.8640369982868e-21
2.3854419341183e-21
2.6686832562166e-21
2.7253745136471e-21
2.593284321756e-21
2.3255091781105e-21
1.9791914949153e-21
1.6061775398067e-21
1.2469959463044e-21
9.2843400817725e-22
6.6412104312979e-22
4.570608695562e-22
3.0298842767833e-22
1.9364435128669e-22
1.1941020545959e-22
7.1090595859576e-23
4.0883670537784e-23
2.2722314814281e-23
1.2209263672056e-23
6.3446231801765e-24
3.1895286311863e-24
1.5515245725722e-24
7.3045564034068e-25
3.3289675098361e-25
1.4688260102783e-25
6.2752167684407e-26
2.5961256838901e-26
1.040138771067e-26
4.0359400025549e-27
1.5166825995121e-27
5.5200076369752e-28
1.9456637004973e-28
6.6413599284452e-29
2.195206477332e-29
7.0255585278339e-30
2.1768152014501e-30
6.5288357132457e-31
1.8951858916978e-31
5.3233911427453e-32
1.446618966661e-32
3.8023134906146e-33
9.6640320823137e-34
2.3744547360204e-34
5.6380951526376e-35
1.2933644532243e-35
2.8653340647796e-36
6.1281522796766e-37
1.2647528748352e-37
2.5177505639027e-38
4.8322138580599e-39
8.9369059685942e-40
1.591848627367e-40
2.7292264109963e-41
4.5012471576091e-42
8.4082792976175e-43
0
0
0
0
1.1477071262067e-50
1.1566590231095e-38
-1.3254307046927e-36
-7.5426323790912e-35
-1.8626880245608e-33
-2.9536281941242e-32
-3.4448932903212e-31
-3.1704114447662e-30
-2.4039566108133e-29
-1.5463915686364e-28
-8.6193951880069e-28
-4.2299573255671e-27
-1.8506116437645e-26
-7.2904881164579e-26
-2.6074217295313e-25
-8.523791232993e-25
-2.5616000967923e-24
-7.1116476455396e-24
-1.8316267875791e-23
-4.3923424478415e-23
-9.8385181086447e-23
-2.0641778551022e-22
-4.0663895894165e-22
-7.5377823876928e-22
-1.3172202355239e-21
-2.1734315499305e-21
-3.3906603390089e-21
-5.0064546978987e-21
-7.0017259415081e-21
-9.2782900362974e-21
-1.164859156598e-20
-1.3845312530607e-20
-1.5554301839207e-20
-1.6467555157015e-20
-1.6345883005588e-20
-1.5076025788814e-20
-1.270642581831e-20
-9.4503638735028e-21
-5.6536110286247e-21
-1.7335163840455e-21
1.8956680636645e-21
4.8930442650777e-21
7.0408547198719e-21
8.2644243878877e-21
8.6216153950186e-21
8.2689547834383e-21
7.4161642936468e-21
6.2812998632894e-21
5.0557693347419e-21
3.8837977962717e-21
2.8562788634751e-21
2.0156989061902e-21
1.3674403696404e-21
8.9301952423041e-22
5.620474330159e-22
3.4122425015904e-22
1.9997834680155e-22
1.1320460212902e-22
6.192942155673e-23
3.2753411813139e-23
1.6752729703071e-23
8.2889804535427e-24
3.9682489770045e-24
1.8384730401714e-24
8.2440360854999e-25
3.5784755013388e-25
1.5037378398184e-25
6.1177620824331e-26
2.4097974803565e-26
9.1906894337578e-27
3.3938940482679e-27
1.213458869284e-27
4.2006169119828e-28
1.4077886284346e-28
4.5673423968576e-29
1.4343226793614e-29
4.3594595974972e-30
1.2822006734601e-30
3.6487286336587e-31
1.0043926292848e-31
2.6739014995909e-32
6.8827186917584e-33
1.7124946645303e-33
4.1174065772991e-34
9.5631929622285e-35
2.1449358098343e-35
4.6440119641215e-36
9.7020345133775e-37
1.9549352114295e-37
3.7974997600684e-38
7.1078807584857e-39
1.281224393769e-39
2.2228092753545e-40
3.7093928469785e-41
5.9503150583605e-42
1.0747079367029e-42
0
0
0
0
1.4840394965468e-49
7.149193173645e-38
-5.4509645706601e-36
-3.3325423187911e-34
-8.3206081137986e-33
-1.3194411393331e-31
-1.5330797679598e-30
-1.4031483250137e-29
-1.0571114658602e-28
-6.7530054458908e-28
-3.7368110413729e-27
-1.820179144113e-26
-7.9026897971318e-26
-3.0891042618452e-25
-1.0960684216903e-24
-3.5541751818622e-24
-1.0593018952214e-23
-2.916069125228e-23
-7.4455492853509e-23
-1.7697058313241e-22
-3.928236585081e-22
-8.1659560652506e-22
-1.5937034924098e-21
-2.9265242907866e-21
-5.0661733513655e-21
-8.2817537421197e-21
-1.2802709159889e-20
-1.8738179246796e-20
-2.5988402257092e-20
-3.4173393730064e-20
-4.2608358536174e-20
-5.0349602579956e-20
-5.6318435315577e-20
-5.9487454002919e-20
-5.9091029113452e-20
-5.4808107483755e-20
-4.6866647603732e-20
-3.6036271661434e-20
-2.3504610966308e-20
-1.0664565296142e-20
1.1358835725096e-21
1.0820583227415e-20
1.773724355843e-20
2.1706799477027e-20
2.2972229520382e-20
2.2074734143841e-20
1.969900249036e-20
1.6528620809015e-20
1.3140503341145e-20
9.9499797185099e-21
7.2025024730028e-21
4.9981551665829e-21
3.3322847195618e-21
2.1380788077268e-21
1.3220457707115e-21
7.8864537094383e-22
4.5425744900461e-22
2.5281228711911e-22
1.3601705882291e-22
7.077108459878e-23
3.5621299637225e-23
1.7347822221333e-23
8.1757066034563e-24
3.7290259124691e-24
1.6462129978464e-24
7.0342523378423e-25
2.9094075493923e-25
1.1648056347711e-25
4.5140573742484e-26
1.6933342375693e-26
6.1485405819952e-27
2.1609296491169e-27
7.3506690421948e-28
2.4199215704234e-28
7.7094913210028e-29
2.3765809602705e-29
7.0880118331239e-30
2.044905377981e-30
5.7058477447427e-31
1.539484852701e-31
4.0154819704511e-32
1.0122647421873e-32
2.4655853817229e-33
5.8006779788643e-34
1.3177139491456e-34
2.8892517683998e-35
6.1121854063694e-36
1.2469984277252e-36
2.4523962731031e-37
4.6467881700235e-38
8.4784982608854e-39
1.4888071857864e-39
2.5144515756304e-40
4.0817483268099e-41
6.3641399608905e-42
1.1106270285925e-42
0
0
0
0
1.2682405152374e-48
3.5201354613193e-37
-1.7821146175036e-35
-1.2052445746228e-33
-3.0552973642231e-32
-4.8526764131206e-31
-5.6213412842554e-30
-5.1186396475089e-29
-3.8323841942006e-28
-2.4314376067269e-27
-1.3356922845507e-26
-6.4570362697967e-26
-2.7816970351275e-25
-1.0786939647785e-24
-3.7962429708123e-24
-1.2207486957033e-23
-3.60742693251e-23
-9.8442795378725e-23
-2.4912023920912e-22
-5.8675808700694e-22
-1.2904020708032e-21
-2.6572592000217e-21
-5.1365558515863e-21
-9.3411674085263e-21
-1.6012848820468e-20
-2.5918589194896e-20
-3.9669352569865e-20
-5.7478820952224e-20
-7.8912800354166e-20
-1.0270736046029e-19
-1.2674067631946e-19
-1.4821928821586e-19
-1.6408455567086e-19
-1.7157405892254e-19
-1.6881071138277e-19
-1.5526505447841e-19
-1.3195790867717e-19
-1.0133675075108e-19
-6.6848052817635e-20
-3.2309693680088e-20
-1.2369058298846e-21
2.3720894561289e-20
4.1114572184125e-20
5.0751547232652e-20
5.3499615929613e-20
5.0923550880555e-20
4.4867325498087e-20
3.70862237076e-20
2.8996854604487e-20
2.1566058119033e-20
1.5319230422366e-20
1.0425641656284e-20
6.8146294181303e-21
4.286686365487e-21
2.5992057194754e-21
1.5210949189489e-21
8.6000567644096e-22
4.7010945849522e-22
2.4858716318692e-22
1.2720138176862e-22
6.299817996288e-23
3.0201650415284e-23
1.4015583605005e-23
6.2959392393877e-24
2.7375275143694e-24
1.1520733512307e-24
4.6924512800322e-25
1.8496646826812e-25
7.0556508341457e-26
2.6044152042106e-26
9.3022975647849e-27
3.2147909017466e-27
1.0749031914741e-27
3.4770099583613e-28
1.0879801014307e-28
3.2927910148098e-29
9.6377472952881e-30
2.7276229740549e-30
7.4629159283532e-31
1.9735780919579e-31
5.043309235704e-32
1.2450129076199e-32
2.968231405984e-33
6.831922092033e-34
1.5175796993936e-34
3.2520109270999e-35
6.719834351076e-36
1.3383528967732e-36
2.5678651865415e-37
4.743851738471e-38
8.4333097104335e-39
1.441802252748e-39
2.3690129966384e-40
3.7383163533036e-41
5.6611169358127e-42
9.5382939550923e-43
0
0
0
0
8.0588211810996e-48
1.4377050996778e-36
-4.6488909414497e-35
-3.6579125631753e-33
-9.4695628058865e-32
-1.5094596446783e-30
-1.7449294767527e-29
-1.581575434815e-28
-1.1771213240033e-27
-7.4180566718468e-27
-4.0456558817518e-26
-1.9409754698625e-25
-8.2964105459569e-25
-3.1914469987332e-24
-1.1140028518399e-23
-3.5526279903097e-23
-1.0410504494314e-22
-2.8169359549951e-22
-7.0679537655259e-22
-1.6504729611269e-21
-3.5983736507433e-21
-7.3451614390392e-21
-1.4072098642539e-20
-2.5357736201985e-20
-4.3058996150401e-20
-6.9009283511035e-20
-1.045226236463e-19
-1.4976740080983e-19
-2.0316109618468e-19
-2.6100257443604e-19
-3.1755957772148e-19
-3.6573877947804e-19
-3.982912178661e-19
-4.0929996506445e-19
-3.9554690529299e-19
-3.5734459750598e-19
-2.9857375548154e-19
-2.259271746656e-19
-1.4760738384775e-19
-7.185113147271e-20
-5.6299433391172e-21
4.6244640622128e-20
8.1519557393734e-20
1.0041611454874e-19
1.0514906550937e-19
9.9189104613901e-20
8.6445786667601e-20
7.0549281993239e-20
5.4363192430132e-20
3.9779088294492e-20
2.7759052722132e-20
1.8537416198163e-20
1.188045279511e-20
7.3249294554693e-21
4.3534365738816e-21
2.4981758600714e-21
1.3858523426179e-21
7.4387858651468e-22
3.8657063340025e-22
1.9455045976248e-22
9.4832443508091e-23
4.4769624686351e-23
2.0466905511426e-23
9.0590610364725e-24
3.8814230534302e-24
1.609512422821e-24
6.4583502396395e-25
2.5073361869747e-25
9.4171157394105e-26
3.4213453717533e-26
1.2023046710955e-26
4.0863731756228e-27
1.3431785500345e-27
4.2693743833254e-28
1.3121567503453e-28
3.8989354563458e-29
1.1199100141207e-29
3.1090214013721e-30
8.3403157606392e-31
2.1615310520217e-31
5.4106509265625e-32
1.3077415757988e-32
3.0509860356389e-33
6.8683392571215e-34
1.4913836018792e-34
3.1222745370057e-35
6.299405028994e-36
1.2242253480212e-36
2.2904805201993e-37
4.1233268907624e-38
7.1377106000387e-39
1.1873386612911e-39
1.8966552903235e-40
2.9071775876238e-41
4.2723929312413e-42
6.9438969560628e-43
0
0
0
0
4.0614303267984e-47
5.007667642413e-36
-9.3491201923941e-35
-9.4664325308017e-33
-2.5234227338412e-31
-4.0476834780403e-30
-4.6751925545096e-29
-4.2208380007391e-28
-3.1239987183509e-27
-1.9559010393215e-26
-1.0591366009326e-25
-5.0433496803492e-25
-2.1390289654617e-24
-8.1636003146865e-24
-2.8270359072331e-23
-8.9447366516507e-23
-2.6008579496712e-22
-6.9843400511116e-22
-1.7395221913343e-21
-4.0327956982035e-21
-8.7298629626239e-21
-1.769269725425e-20
-3.3647881141221e-20
-6.0164617678089e-20
-1.0131043825077e-19
-1.6087383168897e-19
-2.4116189947922e-19
-3.4157424603543e-19
-4.5736432965801e-19
-5.7912865402885e-19
-6.9350574294846e-19
-7.8525679440532e-19
-8.4038086287321e-19
-8.4938350389976e-19
-8.0957248442167e-19
-7.2553430550785e-19
-6.0769628853503e-19
-4.6969659106678e-19
-3.2566305642667e-19
-1.8823225621064e-19
-6.749205690744e-20
2.9480922261866e-20
9.8873082269849e-20
1.4026228437525e-19
1.5642566359348e-19
1.5262569143866e-19
1.3542333743404e-19
1.1133735383053e-19
8.5751679725311e-20
6.2336784771637e-20
4.3014429070076e-20
2.830558771665e-20
1.7833424071542e-20
1.0793652388123e-20
6.2936391768911e-21
3.5434125911967e-21
1.9296142652442e-21
1.0175483453541e-21
5.1996042136686e-22
2.5753459680725e-22
1.2363418459107e-22
5.7514806993095e-23
2.591860560294e-23
1.1310212090571e-23
4.7774754830867e-24
1.9527840317712e-24
7.721844172866e-25
2.9532897033324e-25
1.0922892855755e-25
3.9062585426534e-26
1.3506177993054e-26
4.5145532242342e-27
1.458720083658e-27
4.5558078119834e-28
1.3751511397203e-28
4.01119530866e-29
1.1305028361725e-29
3.077996177052e-30
8.0942034848554e-31
2.0553560993519e-31
5.0383692480733e-32
1.1919314795695e-32
2.7203479522877e-33
5.9875304721941e-34
1.2704096129761e-34
2.5972824223033e-35
5.11403878195e-36
9.6928428654998e-37
1.7674029152212e-37
3.0985125706416e-38
5.2193976248366e-39
8.4417379598857e-40
1.3099659404242e-40
1.9487348386637e-41
2.7767179165838e-42
4.3492290212433e-43
0
0
0
0
1.6909474117685e-46
1.5177782836537e-35
-1.2325330169731e-34
-2.1073233231697e-32
-5.8559194659478e-31
-9.4870499379274e-30
-1.0966798931393e-28
-9.8708153876274e-28
-7.2689713097005e-27
-4.522900812187e-26
-2.4323434436521e-25
-1.1497708105501e-24
-4.8399100983993e-24
-1.8332543929553e-23
-6.3017889312644e-23
-1.9798667231505e-22
-5.7190570053723e-22
-1.526549507345e-21
-3.7812229502174e-21
-8.7221796543214e-21
-1.8791565421003e-20
-3.7904796861734e-20
-7.1726348446744e-20
-1.2753399937401e-19
-2.1336726031832e-19
-3.3626570558419e-19
-4.9969937946812e-19
-7.0073472934436e-19
-9.2792538652777e-19
-1.1611367754704e-18
-1.3742118213355e-18
-1.5403493748139e-18
-1.6385307302519e-18
-1.6582457281918e-18
-1.6003197120718e-18
-1.4739507200096e-18
-1.292489306376e-18
-1.0708658496026e-18
-8.2549871539349e-19
-5.7500490769365e-19
-3.3942828161325e-19
-1.3729130555161e-19
1.8199834509947e-20
1.2177186078883e-19
1.7633433599863e-19
1.9102538962313e-19
1.7809823893452e-19
1.4983550371746e-19
1.1632596155392e-19
8.4426663348782e-20
5.7787677998986e-20
3.7552679504243e-20
2.3295215180329e-20
1.3858215010504e-20
7.9363857368522e-21
4.3886838006478e-21
2.3486293307607e-21
1.2181368347366e-21
6.1278392671728e-22
2.9904092469696e-22
1.4153779651768e-22
6.4943101836184e-23
2.8871215195735e-23
1.2428442825686e-23
5.1779622537384e-24
2.0868862406208e-24
8.1336157729529e-25
3.0647711168175e-25
1.1162398467003e-25
3.9291713967862e-26
1.3365426270095e-26
4.3930466651417e-27
1.395130978836e-27
4.2804806972639e-28
1.268685711998e-28
3.6319965338851e-29
1.0041551851857e-29
2.6806565758768e-30
6.908330055038e-31
1.7182572843555e-31
4.1234692999709e-32
9.544589909517e-33
2.1301792006756e-33
4.5821301400354e-34
9.4956004070303e-35
1.8948519966188e-35
3.6391701712875e-36
6.7229754624005e-37
1.1939643070334e-37
2.0370891997307e-38
3.3366782243047e-39
5.2429768393153e-40
7.8967802135063e-41
1.1390776482459e-41
1.5721056080738e-42
2.3705891899658e-43
0
0
0
0
5.9820098682177e-46
4.0645196199246e-35
9.0310924467289e-36
-4.0394088926813e-32
-1.1932719610435e-30
-1.9627381740964e-29
-2.2758901311904e-28
-2.0446739719782e-27
-1.4992240675914e-26
-9.275250347389e-26
-4.9555475349754e-25
-2.326181778529e-24
-9.7224783825043e-24
-3.657121761265e-23
-1.2489727614976e-22
-3.9012779965828e-22
-1.1214269730841e-21
-2.9816870290019e-21
-7.3635693065386e-21
-1.6946945516432e-20
-3.6441577481525e-20
-7.3363607555583e-20
-1.3849656300175e-19
-2.4550514037886e-19
-4.091455649064e-19
-6.4178977175518e-19
-9.4858915487656e-19
-1.3224355131728e-18
-1.7406791709183e-18
-2.1658674639463e-18
-2.551902864405e-18
-2.8547134474895e-18
-3.0436489381456e-18
-3.108188796723e-18
-3.0559204822752e-18
-2.9025815556758e-18
-2.6609847357367e-18
-2.3377133552136e-18
-1.9408031466568e-18
-1.4916805580108e-18
-1.0298265608742e-18
-6.0438712864158e-19
-2.5785755519199e-19
-1.2659141718066e-20
1.3219457962862e-19
1.9500799297087e-19
2.0149434270284e-19
1.7635555114776e-19
1.3863334132149e-19
1.0051000638571e-19
6.8212934227196e-20
4.3761307266151e-20
2.6733083171681e-20
1.5641677956199e-20
8.807595572408e-21
4.7905233808842e-21
2.5235437699336e-21
1.2895638678746e-21
6.3971291782245e-22
3.0806033868741e-22
1.4394203611483e-22
6.5211541349478e-23
2.8621820112091e-23
1.2161169062051e-23
4.9989005449715e-24
1.9868611388107e-24
7.6327847418837e-25
2.8333349992576e-25
1.016078095576e-25
3.5197544428512e-26
1.1776400906904e-26
3.8053525003176e-27
1.1874839825276e-27
3.5782895325363e-28
1.0411038690049e-28
2.924342706647e-29
7.9288376080538e-30
2.0746962676641e-30
5.2379859666933e-31
1.2756272011161e-31
2.9957189975275e-32
6.7818403522837e-33
1.4794401067871e-33
3.1086169729693e-34
6.2886267558381e-35
1.2241752498501e-35
2.2918801667232e-36
4.1242245784065e-37
7.1287859820351e-38
1.1827980159394e-38
1.8823610995543e-39
2.8710672873336e-40
4.1932995764697e-41
5.8591631395855e-42
7.8243109237097e-43
1.1345393646145e-43
0
0
0
0
1.8355851854784e-45
9.7319248822953e-35
6.7580623367299e-34
-6.5975903747023e-32
-2.1434568300778e-30
-3.607423685184e-29
-4.2093690855175e-28
-3.781110188417e-27
-2.7632770345219e-26
-1.7009681031698e-25
-9.0334426649949e-25
-4.2130370656745e-24
-1.749463611676e-23
-6.5405337738261e-23
-2.2218807912459e-22
-6.9114644505188e-22
-1.981195374323e-21
-5.2604020369985e-21
-1.298859455437e-20
-2.9910208599251e-20
-6.4371197703016e-20
-1.2967115461372e-19
-2.4481689426634e-19
-4.3378377750222e-19
-7.2245755169002e-19
-1.132931693706e-18
-1.6756572681935e-18
-2.3421461834819e-18
-3.1061065418146e-18
-3.9403100912501e-18
-4.8332810570996e-18
-5.7641057100264e-18
-6.6284745047645e-18
-7.1991001950311e-18
-7.2164231207949e-18
-6.570105046625e-18
-5.4044222417238e-18
-4.0404113001171e-18
-2.7871136322741e-18
-1.8030611503499e-18
-1.09200935378e-18
-5.8699205624914e-19
-2.2778671292541e-19
1.5945671147199e-20
1.5947808712307e-19
2.2051260162182e-19
2.2317710549456e-19
1.927027064684e-19
1.4954583454631e-19
1.0694891807453e-19
7.1522371845271e-20
4.5175195775124e-20
2.7157752143974e-20
1.563809053021e-20
8.6705284738707e-21
4.6477404614244e-21
2.4153568439567e-21
1.2187917350043e-21
5.9742930160562e-22
2.843878220978e-22
1.3135796397106e-22
5.8815217513599e-23
2.5502154340419e-23
1.0698765802433e-23
4.3395849605732e-24
1.7009201046707e-24
6.4397923496338e-25
2.3544940419775e-25
8.3116442167867e-26
2.8326483369012e-26
9.3192918225165e-27
2.9595925589526e-27
9.0722026981593e-28
2.6840572183402e-28
7.6634591301369e-29
2.1113222542124e-29
5.6118782747169e-30
1.4387890881436e-30
3.5572576452608e-31
8.4788987097425e-32
1.9477283826778e-32
4.3104541417732e-33
9.1864127303359e-34
1.8845217774925e-34
3.7194061155e-35
7.058763187986e-36
1.2873931514824e-36
2.2549925654419e-37
3.7908082547295e-38
6.1115184616858e-39
9.4416892644576e-40
1.3965587667451e-40
1.9759420947019e-41
2.6715273195449e-42
3.4478296833233e-43
4.801534694468e-44
0
0
0
0
4.9628929146151e-45
2.1032480971345e-34
2.6166500484317e-33
-8.8633008671673e-32
-3.3890845137537e-30
-5.9082399573016e-29
-6.9703836332462e-28
-6.2752751706206e-27
-4.5774781594364e-26
-2.8063251952009e-25
-1.4826036074301e-24
-6.8751464195895e-24
-2.8388661168898e-23
-1.0560670654712e-22
-3.5739967460946e-22
-1.1093174466118e-21
-3.1786631577558e-21
-8.4507282927007e-21
-2.0918673861789e-20
-4.832253713244e-20
-1.0431717723731e-19
-2.1067726764773e-19
-3.9855003926463e-19
-7.0756366476991e-19
-1.1819203674979e-18
-1.8629880936772e-18
-2.7777893434211e-18
-3.9297020668668e-18
-5.3200773821473e-18
-7.020241098469e-18
-9.1887371561152e-18
-1.1820724229993e-17
-1.4330576415909e-17
-1.5634171645274e-17
-1.5011942348794e-17
-1.2758687510954e-17
-9.8887837726948e-18
-7.3406868104447e-18
-5.4428385320744e-18
-4.0061626086304e-18
-2.7699456013055e-18
-1.6743107370424e-18
-8.0419371760522e-19
-2.2577407227348e-19
8.399427637699e-20
2.0534279936846e-19
2.2122896184201e-19
1.9007008594268e-19
1.4489170590765e-19
1.0169013850813e-19
6.6815129913004e-20
4.1509454163622e-20
2.4569131327253e-20
1.3944654488308e-20
7.6302876521436e-21
4.0416392430111e-21
2.077702306491e-21
1.0378352438932e-21
5.037396301614e-22
2.3740984846969e-22
1.0852280789153e-22
4.8056071914083e-23
2.0591974214858e-23
8.5304199447554e-24
3.413968510911e-24
1.3193086246206e-24
4.9213509477483e-25
1.7716630716929e-25