/*--------------------------------*- C++ -*----------------------------------*\
  =========                 |
  \\      /  F ield         | OpenFOAM: The Open Source CFD Toolbox
   \\    /   O peration     | Website:  https://openfoam.org
    \\  /    A nd           | Version:  7
     \\/     M anipulation  |
\*---------------------------------------------------------------------------*/
FoamFile
{
    version     2.0;
    format      ascii;
    class       volScalarField;
    location    "100";
    object      epsilon;
}
// * * * * * * * * * * * * * * * * * * * * * * * * * * * * * * * * * * * * * //

dimensions      [0 2 -3 0 0 0 0];

internalField   nonuniform List<scalar> 
12225
(
183.629
91.9027
78.9211
73.0621
68.9657
65.5541
62.5718
59.921
57.5448
55.4048
53.4717
51.7224
50.1389
48.7084
47.4267
46.3063
45.3362
45.3134
57.9561
42.9557
37.4581
34.8526
33.0298
31.5423
30.2581
29.1275
28.1219
27.222
26.4133
25.6839
25.0232
24.4221
23.8663
23.3453
22.7612
22.1347
32.7561
30.8226
28.2045
26.4499
25.0995
23.963
22.9664
22.0798
21.2854
20.5702
19.924
19.3379
18.8036
18.313
17.8537
17.4141
16.9321
16.4453
23.9257
25.3617
24.2963
23.0584
21.9619
20.9858
20.1053
19.3083
18.5856
17.9294
17.3323
16.7876
16.2883
15.8273
15.3945
14.9794
14.5485
14.121
19.8926
22.2829
22.0324
21.2621
20.3658
19.5062
18.7009
17.9555
17.2698
16.6407
16.0638
15.5341
15.0462
14.5938
14.1691
13.7635
13.36
12.969
17.8001
20.2882
20.5259
20.1141
19.4184
18.6685
17.9304
17.2278
16.5697
15.9584
15.3928
14.8698
14.3855
13.9349
13.512
13.1106
12.7223
12.354
16.6318
18.882
19.4278
19.2474
18.769
18.1293
17.4617
16.8043
16.1749
15.5814
15.0263
14.5088
14.0268
13.5768
13.1543
12.7555
12.3763
12.0218
15.9421
17.8314
18.5386
18.5222
18.2354
17.7151
17.1255
16.5203
15.9256
15.3547
14.8138
14.3049
13.8276
13.38
12.9595
12.5638
12.1913
11.8455
15.5113
17.0043
17.7516
17.871
17.708
17.3257
16.8197
16.2752
15.7235
15.1827
14.6627
14.1679
13.7002
13.2592
12.8441
12.4537
12.0879
11.7491
15.2266
16.3222
17.0179
17.2289
17.1484
16.8923
16.477
16.0006
15.5004
14.9984
14.5072
14.0339
13.5823
13.1538
12.7489
12.3677
12.0106
11.6793
15.0305
15.7392
16.3167
16.5637
16.5362
16.3769
16.0546
15.6492
15.2072
14.7518
14.2977
13.854
13.426
13.0167
12.6279
12.2606
11.9157
11.5946
14.9047
15.2744
15.7025
15.9274
15.9232
15.8187
15.5726
15.2295
14.8433
14.4359
14.0222
13.6123
13.2127
12.8275
12.4593
12.1098
11.7802
11.4722
14.7895
14.892
15.1279
15.2848
15.282
15.2028
15.0092
14.723
14.3912
14.0329
13.6627
13.2907
12.924
12.5675
12.2242
11.8966
11.5859
11.2945
14.6751
14.5327
14.5443
14.5679
14.535
14.444
14.2724
14.0379
13.76
13.4546
13.134
12.8076
12.4823
12.1629
11.8529
11.5548
11.2704
11.0024
14.5844
14.2061
13.9867
13.8425
13.7093
13.563
13.386
13.1751
12.936
12.6766
12.4045
12.1262
11.847
11.571
11.3013
11.0402
10.7893
10.552
14.5104
13.9416
13.5108
13.1802
12.9072
12.6653
12.4362
12.2082
11.9769
11.7413
11.5029
11.264
11.0268
10.7935
10.5656
10.3446
10.1316
9.92969
14.4529
13.7516
13.1666
12.6805
12.2697
11.9155
11.6032
11.3211
11.0606
10.8164
10.5849
10.364
10.1523
9.94929
9.75446
9.5676
9.38868
9.21948
14.4209
13.6523
12.9898
12.4204
11.9285
11.501
11.1268
10.7965
10.5019
10.2362
9.99425
9.77193
9.56601
9.37401
9.19402
9.02454
8.86446
8.71351
14.4304
13.6805
13.0377
12.4888
12.0165
11.6065
11.2472
10.9286
10.6425
10.3826
10.144
9.92301
9.7169
9.52354
9.34134
9.16911
9.00586
8.84981
14.4884
13.871
13.3807
12.9907
12.6664
12.3846
12.1286
11.8867
11.6521
11.4218
11.1947
10.971
10.7513
10.5367
10.3277
10.1253
9.92967
9.7401
14.5821
14.2038
13.9685
13.8136
13.6724
13.5226
13.3488
13.1448
12.9153
12.6667
12.4059
12.139
11.8707
11.605
11.3447
11.0918
10.8475
10.612
14.7169
14.7195
14.7999
14.8951
14.8819
14.8067
14.6401
14.394
14.1023
13.7826
13.4484
13.1095
12.7729
12.4436
12.1247
11.8183
11.5255
11.2465
14.9319
15.372
15.8436
16.089
16.0857
15.9783
15.7272
15.3768
14.9835
14.5701
14.1521
13.7394
13.3387
12.9537
12.5867
12.2387
11.9099
11.6001
15.217
16.2875
17.0038
17.232
17.1595
16.9156
16.508
16.0365
15.5396
15.0402
14.5516
14.0815
13.634
13.2111
12.8133
12.4403
12.0911
11.7648
15.7469
17.4751
18.2584
18.3192
18.0984
17.6376
17.0778
16.491
15.907
15.3418
14.8036
14.2962
13.8209
13.3772
12.9641
12.5799
12.2228
11.8908
16.8112
19.1445
19.7164
19.5255
19.016
18.3464
17.6514
16.97
16.3199
15.7081
15.1372
14.6069
14.1156
13.6612
13.241
12.8523
12.4928
12.1598
19.16
21.7405
21.7284
21.1396
20.2745
19.4168
18.6003
17.8362
17.1277
16.4746
15.874
15.3222
14.8154
14.3496
13.921
13.5265
13.1626
12.8264
24.8996
26.3215
25.2097
23.8824
22.6811
21.6186
20.6644
19.8003
19.0156
18.302
17.6521
17.0591
16.5173
16.0215
15.5669
15.1498
14.7654
14.4117
42.1128
36.661
32.809
30.537
28.8435
27.4478
26.2333
25.1517
24.1799
23.3022
22.5064
21.7829
21.1235
20.5215
19.9701
19.4663
18.9999
18.5766
125.517
74.9274
64.3996
59.4729
56.0801
53.3034
50.8713
48.692
46.7213
44.9305
43.2975
41.8048
40.4376
39.1835
38.0295
36.9721
35.9826
35.1019
0.0312375
0.0466444
0.0897452
0.124644
0.153609
0.183853
0.215992
0.252443
0.295443
0.346433
0.40621
0.474898
0.551995
0.636251
0.726207
0.820529
0.918189
1.01833
1.12029
1.22361
1.32801
1.43342
1.5385
1.64303
1.74686
1.84999
1.95232
2.05392
2.1547
2.25477
2.35403
2.45261
2.55039
2.64753
2.74386
2.83954
2.93439
3.02855
3.1218
3.21429
3.30574
3.39632
3.48571
3.57405
3.66103
3.74678
3.83097
3.91376
3.99489
4.07463
4.15294
4.22918
4.30316
4.37496
4.4442
4.51094
4.57477
4.63574
4.69344
4.74792
4.79877
4.84603
4.88935
4.92875
4.96392
4.99487
5.02138
5.04349
5.05893
5.07065
5.07964
5.08269
5.08083
5.07403
5.06229
5.0456
5.02414
4.99791
4.96716
4.93187
4.89241
4.84874
4.8013
4.75002
4.69544
4.63748
4.57671
4.51306
4.44696
4.37846
4.30772
4.23511
4.1609
4.0854
4.00883
3.93128
3.85285
3.77379
3.69429
3.61459
3.53484
3.45523
3.37594
3.29711
3.21891
3.14145
3.06487
2.98924
2.91465
2.84128
2.76829
2.69607
2.62507
2.55542
2.48727
2.42063
2.35558
2.29217
2.23049
2.17052
2.1119
2.05463
1.99885
1.9446
1.89197
1.84094
1.79158
1.74386
1.69779
1.65331
1.61043
1.56903
1.52903
1.49039
1.45311
1.41718
1.3826
1.34937
1.31745
1.28683
1.25745
1.22926
1.20222
1.1763
1.15147
1.1277
1.10499
1.0833
1.0626
1.04286
1.02404
1.00612
0.989078
0.972863
0.957524
0.942979
0.929186
0.916115
0.903741
0.892036
0.880974
0.870525
0.860661
0.85135
0.842566
0.83426
0.826441
0.818996
0.812013
0.805244
0.799064
0.793434
0.787761
0.782372
0.776976
0.771754
0.765127
0.759122
0.751474
0.694718
0.18253
0.113669
0.115607
0.131317
0.154385
0.183198
0.217573
0.257582
0.303224
0.354214
0.409936
0.469338
0.530658
0.592856
0.655562
0.718366
0.780662
0.841592
0.900906
0.958585
1.01469
1.06934
1.12259
1.17466
1.22576
1.27609
1.32581
1.37508
1.42399
1.47266
1.52113
1.56946
1.61766
1.66578
1.71377
1.76167
1.80943
1.85704
1.90445
1.95164
1.99854
2.04513
2.09133
2.13711
2.1824
2.2272
2.27143
2.31515
2.35839
2.40134
2.44435
2.48676
2.52807
2.5682
2.60699
2.64437
2.68018
2.71431
2.74663
2.77703
2.80536
2.83153
2.85539
2.87686
2.8958
2.91213
2.92572
2.93647
2.94413
2.9491
2.95081
2.95014
2.9463
2.9394
2.92949
2.9166
2.9008
2.88216
2.86077
2.83671
2.81012
2.7811
2.74982
2.71636
2.68094
2.64366
2.60473
2.56425
2.52241
2.4793
2.43508
2.38992
2.34401
2.29752
2.25055
2.20321
2.15562
2.10789
2.06014
2.01249
1.96502
1.91786
1.87107
1.82477
1.77902
1.73391
1.68948
1.64579
1.60288
1.5608
1.51943
1.47879
1.43899
1.40007
1.3621
1.32509
1.28907
1.25405
1.21982
1.18653
1.15416
1.12268
1.09213
1.06254
1.03391
1.00627
0.979583
0.953833
0.929026
0.905155
0.882217
0.86018
0.839006
0.818658
0.799115
0.780365
0.762398
0.745206
0.728775
0.713089
0.698125
0.683856
0.670261
0.657316
0.645005
0.633311
0.622217
0.611708
0.601766
0.592371
0.583508
0.575156
0.567303
0.559932
0.553062
0.54666
0.540697
0.535151
0.530004
0.525239
0.520841
0.516794
0.513083
0.509696
0.506622
0.503842
0.50136
0.49915
0.49721
0.49557
0.494109
0.49335
0.491338
0.490907
0.490882
0.492342
0.494176
0.499099
0.504876
0.524546
0.438928
0.221451
0.19762
0.204583
0.223549
0.250913
0.285457
0.32601
0.371062
0.418965
0.46826
0.517912
0.567497
0.616462
0.66412
0.710017
0.754201
0.796948
0.83844
0.878868
0.918414
0.957261
0.995563
1.03348
1.07114
1.10865
1.14609
1.18353
1.221
1.25853
1.29614
1.33382
1.37158
1.40941
1.44729
1.48521
1.52314
1.56107
1.59896
1.6368
1.67455
1.71218
1.74967
1.78699
1.82411
1.86101
1.89767
1.93407
1.97019
2.00604
2.04153
2.07646
2.11064
2.14397
2.17632
2.20759
2.23766
2.26643
2.29377
2.31956
2.34369
2.36603
2.38647
2.40489
2.4212
2.43528
2.44705
2.45643
2.4633
2.46744
2.46893
2.46821
2.46482
2.45878
2.45013
2.43888
2.4251
2.40885
2.39019
2.36922
2.34605
2.32077
2.29352
2.2644
2.23358
2.20118
2.16734
2.1322
2.0959
2.05856
2.02031
1.9813
1.94168
1.90157
1.86113
1.82046
1.77967
1.73885
1.6981
1.65751
1.61716
1.57713
1.53749
1.49832
1.45968
1.42162
1.38419
1.34742
1.31136
1.27603
1.24141
1.20751
1.17436
1.14199
1.11042
1.07966
1.04972
1.02062
0.992286
0.964751
0.937989
0.911996
0.886773
0.862324
0.83865
0.815752
0.793562
0.772051
0.751264
0.731215
0.711901
0.693308
0.67541
0.658173
0.641573
0.625604
0.610264
0.595544
0.581436
0.567922
0.554984
0.542607
0.530776
0.519475
0.508689
0.498404
0.488609
0.479289
0.470431
0.462021
0.454047
0.446492
0.439347
0.432597
0.426234
0.420246
0.414617
0.409336
0.404388
0.399761
0.395443
0.391422
0.387688
0.384228
0.381035
0.378095
0.375404
0.372954
0.370733
0.368768
0.366988
0.365608
0.364133
0.363209
0.361979
0.362489
0.363042
0.365625
0.369299
0.383874
0.749442
0.343316
0.287642
0.284066
0.298131
0.321999
0.352779
0.38866
0.427982
0.469191
0.511001
0.552516
0.593214
0.632795
0.671111
0.708175
0.744141
0.779224
0.813619
0.847506
0.881038
0.914351
0.947554
0.980743
1.01399
1.04735
1.08086
1.11454
1.14841
1.18247
1.21673
1.25116
1.28576
1.32052
1.35542
1.39045
1.42558
1.46079
1.49608
1.53142
1.56678
1.60215
1.6375
1.67281
1.70805
1.74321
1.77824
1.81312
1.8478
1.88222
1.91629
1.94986
1.98283
2.01508
2.04651
2.077
2.10643
2.13468
2.16164
2.18716
2.21114
2.23344
2.25393
2.2725
2.28903
2.30342
2.31556
2.32536
2.33276
2.33745
2.33947
2.33927
2.33646
2.33103
2.32301
2.31243
2.29932
2.28376
2.26581
2.24556
2.22311
2.19857
2.17207
2.14373
2.11369
2.08209
2.04907
2.01476
1.97932
1.94287
1.90555
1.86751
1.82889
1.78984
1.75048
1.71094
1.67132
1.63172
1.59224
1.55295
1.51395
1.47531
1.43709
1.39936
1.36218
1.3256
1.28966
1.2544
1.21984
1.18601
1.15292
1.12057
1.08898
1.05816
1.02813
0.998885
0.97044
0.942789
0.915914
0.889809
0.864463
0.839867
0.816015
0.792898
0.770511
0.748846
0.727874
0.707575
0.687946
0.668987
0.650691
0.633045
0.616033
0.599601
0.583722
0.568415
0.553678
0.539506
0.525891
0.512803
0.500232
0.488169
0.476605
0.465524
0.454914
0.444761
0.435057
0.425789
0.416944
0.408511
0.400478
0.392833
0.385564
0.378661
0.372112
0.365907
0.360035
0.354484
0.349243
0.344301
0.339648
0.335274
0.331167
0.32732
0.323722
0.320366
0.317244
0.31435
0.311676
0.309234
0.306995
0.305041
0.303229
0.301804
0.300441
0.299896
0.299436
0.300439
0.302587
0.311473
1.04903
0.460414
0.370889
0.35556
0.362178
0.380066
0.404908
0.434451
0.467061
0.501404
0.536432
0.571407
0.605884
0.639649
0.672645
0.70502
0.736808
0.768196
0.799338
0.830368
0.8614
0.892527
0.923822
0.955344
0.987133
1.01922
1.05161
1.08433
1.11736
1.1507
1.18435
1.21827
1.25246
1.28691
1.32157
1.35645
1.39152
1.42676
1.46216
1.49769
1.53334
1.56908
1.60488
1.64072
1.67657
1.7124
1.74817
1.78383
1.81934
1.85461
1.88954
1.92401
1.95793
1.99118
2.02365
2.05523
2.08578
2.11518
2.14331
2.17001
2.19516
2.21863
2.24027
2.25996
2.27757
2.29299
2.3061
2.31682
2.32505
2.33059
2.33327
2.33362
2.33129
2.32625
2.31852
2.30812
2.29512
2.27956
2.26151
2.24109
2.21837
2.19349
2.16656
2.13773
2.10712
2.0749
2.0412
2.00617
1.96997
1.93275
1.89464
1.85582
1.81642
1.7766
1.73648
1.69619
1.65585
1.61555
1.57539
1.53547
1.49587
1.45665
1.4179
1.37968
1.34204
1.30503
1.26869
1.23306
1.19817
1.16403
1.13067
1.09809
1.06631
1.03533
1.00516
0.975805
0.947262
0.919527
0.892592
0.866439
0.84104
0.816412
0.792546
0.769428
0.747048
0.725392
0.704441
0.684177
0.664587
0.64566
0.627386
0.609751
0.592738
0.57632
0.560472
0.545185
0.530453
0.516264
0.50261
0.489435
0.476751
0.464555
0.452841
0.44159
0.430786
0.420424
0.410493
0.400982
0.391879
0.383173
0.374855
0.366912
0.359335
0.352112
0.345234
0.338689
0.332467
0.326558
0.320951
0.315637
0.310605
0.305846
0.301352
0.297111
0.293117
0.28936
0.285835
0.282535
0.279454
0.276596
0.27395
0.271548
0.26935
0.267464
0.265781
0.264647
0.263547
0.263655
0.264675
0.269705
1.30431
0.561443
0.440496
0.413288
0.412147
0.423595
0.442363
0.465828
0.492378
0.520854
0.550392
0.580381
0.610438
0.640348
0.67021
0.69967
0.72909
0.758538
0.788103
0.817872
0.847921
0.878313
0.909097
0.940309
0.971972
1.0041
1.03669
1.06975
1.10327
1.13722
1.1716
1.20637
1.24152
1.27704
1.31286
1.34899
1.38539
1.42205
1.45895
1.49606
1.53335
1.57079
1.60835
1.64602
1.68376
1.72154
1.7593
1.79699
1.83453
1.87184
1.90882
1.94536
1.98138
2.01674
2.05134
2.08504
2.11771
2.14922
2.17941
2.20815
2.23529
2.26067
2.28416
2.3056
2.32486
2.34181
2.35633
2.36832
2.37767
2.38428
2.38779
2.38877
2.38691
2.38218
2.37459
2.36417
2.35097
2.33504
2.31648
2.29537
2.27183
2.24598
2.21796
2.18791
2.15597
2.12231
2.08709
2.05046
2.0126
1.97368
1.93384
1.89327
1.85211
1.81052
1.76864
1.72659
1.6845
1.64249
1.60064
1.55906
1.51784
1.47705
1.43677
1.39706
1.35797
1.31957
1.28189
1.24497
1.20883
1.1735
1.139
1.10533
1.07251
1.04055
1.00944
0.979189
0.949794
0.921247
0.89354
0.866656
0.840577
0.815312
0.790842
0.767151
0.744224
0.722046
0.700599
0.679865
0.659827
0.640471
0.62178
0.603741
0.586336
0.569542
0.553341
0.537714
0.52265
0.508128
0.49414
0.480659
0.467675
0.455178
0.44316
0.43159
0.420454
0.409753
0.399481
0.389621
0.380163
0.371099
0.362418
0.354109
0.346164
0.338571
0.331319
0.324401
0.317805
0.311522
0.305541
0.299852
0.294446
0.289314
0.284446
0.279835
0.275472
0.271348
0.267457
0.263793
0.260351
0.25713
0.254126
0.251354
0.248803
0.24653
0.244508
0.242907
0.241585
0.240857
0.241136
0.243721
1.50049
0.641434
0.493922
0.45523
0.447557
0.453255
0.466781
0.485203
0.506891
0.530788
0.556155
0.582426
0.609426
0.636801
0.664207
0.691921
0.719973
0.748396
0.777238
0.806554
0.836391
0.866793
0.89779
0.929406
0.961652
0.994534
1.02805
1.06218
1.09692
1.13225
1.16814
1.20455
1.24142
1.27871
1.31641
1.35452
1.39303
1.43192
1.47115
1.51069
1.55052
1.59058
1.63085
1.67128
1.71181
1.75241
1.79299
1.83351
1.87387
1.914
1.9538
1.99316
2.03199
2.07015
2.10752
2.14396
2.17933
2.21348
2.24625
2.27748
2.30702
2.3347
2.36035
2.38383
2.40499
2.42368
2.43977
2.45314
2.46369
2.47134
2.47578
2.47731
2.47584
2.4713
2.46369
2.45305
2.43942
2.42288
2.40351
2.38141
2.35671
2.32953
2.30003
2.26835
2.23466
2.19913
2.16195
2.12328
2.08331
2.04221
2.00017
1.95736
1.91394
1.87008
1.82592
1.7816
1.73725
1.69299
1.64893
1.60518
1.56181
1.51892
1.47659
1.43488
1.39385
1.35355
1.31402
1.27531
1.23745
1.20045
1.16433
1.12911
1.0948
1.06141
1.02892
0.997352
0.96669
0.93693
0.908061
0.880068
0.852938
0.826662
0.801225
0.77661
0.7528
0.729778
0.707525
0.686022
0.665249
0.64519
0.625826
0.60714
0.589113
0.571725
0.554956
0.538787
0.523201
0.508177
0.493707
0.479768
0.466343
0.453419
0.440982
0.429012
0.417493
0.406416
0.39577
0.385525
0.375677
0.366224
0.357155
0.348459
0.340127
0.332149
0.324515
0.317218
0.310245
0.303588
0.297237
0.291182
0.285414
0.279925
0.274704
0.269743
0.265035
0.26057
0.256343
0.252347
0.248577
0.24503
0.241706
0.238609
0.235742
0.233134
0.230792
0.228806
0.22716
0.226023
0.225574
0.226825
1.63572
0.699483
0.531241
0.482927
0.469711
0.470748
0.480136
0.494693
0.512739
0.533235
0.555648
0.579448
0.604051
0.629308
0.655285
0.681918
0.709197
0.73713
0.765745
0.795072
0.825144
0.855988
0.887627
0.920074
0.953334
0.987407
1.02228
1.05795
1.09438
1.13155
1.16937
1.2078
1.24688
1.28661
1.32692
1.36778
1.40914
1.45096
1.49319
1.5358
1.57876
1.62201
1.66552
1.70922
1.75307
1.79699
1.84092
1.88479
1.9285
1.97197
2.01509
2.05776
2.09984
2.14121
2.18174
2.22126
2.25964
2.2967
2.33228
2.36621
2.39832
2.42842
2.45635
2.48195
2.50503
2.52547
2.54311
2.55782
2.5695
2.57806
2.58327
2.58527
2.58404
2.57951
2.57169
2.56062
2.54636
2.52897
2.50856
2.48523
2.45911
2.43036
2.39912
2.36556
2.32988
2.29224
2.25285
2.2119
2.16957
2.12607
2.08157
2.03627
1.99034
1.94394
1.89724
1.85039
1.80352
1.75676
1.71022
1.66402
1.61825
1.57299
1.52834
1.48436
1.44111
1.39865
1.35703
1.31627
1.27642
1.23749
1.19951
1.1625
1.12645
1.09138
1.05728
1.02416
0.992
0.960803
0.930554
0.901239
0.872844
0.845354
0.818753
0.793024
0.768147
0.744103
0.720872
0.698434
0.676768
0.655854
0.635671
0.6162
0.597421
0.579312
0.561854
0.545027
0.52881
0.513184
0.498132
0.483636
0.469678
0.45624
0.443308
0.430863
0.418889
0.407371
0.396297
0.385645
0.375406
0.365571
0.356118
0.347037
0.338325
0.32997
0.321961
0.314291
0.30695
0.299929
0.293219
0.28681
0.280695
0.274863
0.269305
0.264014
0.258981
0.254197
0.249657
0.245352
0.241279
0.237434
0.233816
0.230426
0.227269
0.224364
0.221725
0.219409
0.217433
0.215917
0.214845
0.215247
1.71493
0.737421
0.554408
0.49861
0.480687
0.478332
0.484526
0.496259
0.511881
0.530233
0.550453
0.57206
0.594961
0.618997
0.644042
0.670028
0.696923
0.724722
0.753436
0.783085
0.81369
0.845272
0.877846
0.911423
0.946004
0.981585
1.01815
1.05568
1.09415
1.13346
1.17362
1.21466
1.25651
1.29912
1.34245
1.38645
1.43107
1.47626
1.52196
1.56812
1.6147
1.66163
1.70885
1.75631
1.80392
1.85162
1.89932
1.94695
1.99439
2.04155
2.08832
2.13456
2.18016
2.22496
2.26882
2.31157
2.35306
2.3931
2.43153
2.46815
2.50278
2.53524
2.56535
2.59292
2.61779
2.6398
2.65879
2.67464
2.68723
2.69646
2.70217
2.70441
2.70317
2.69841
2.69013
2.67838
2.66324
2.64477
2.62308
2.5983
2.57058
2.54005
2.50691
2.47133
2.4335
2.39362
2.35191
2.30855
2.26376
2.21774
2.17068
2.12279
2.07424
2.02522
1.97589
1.92641
1.87692
1.82755
1.77844
1.72969
1.68141
1.63369
1.58662
1.54026
1.49469
1.44996
1.40612
1.36321
1.32126
1.28029
1.24034
1.20141
1.16351
1.12665
1.09082
1.05603
1.02227
0.98952
0.957782
0.927035
0.897266
0.868455
0.840588
0.813642
0.787599
0.762437
0.738136
0.714672
0.692024
0.670169
0.649086
0.628752
0.609147
0.590248
0.572033
0.554481
0.537571
0.521282
0.505595
0.49049
0.475949
0.461952
0.448482
0.435522
0.423053
0.411061
0.39953
0.388441
0.377781
0.367538
0.357694
0.348238
0.339159
0.330436
0.322064
0.314038
0.306345
0.298978
0.291926
0.285182
0.278735
0.272578
0.266701
0.261096
0.255756
0.250672
0.245837
0.241244
0.236888
0.232766
0.228874
0.225214
0.221789
0.218613
0.2157
0.213088
0.210804
0.208935
0.207441
0.207102
1.74422
0.757811
0.565685
0.50445
0.482863
0.47815
0.482487
0.492485
0.506157
0.522508
0.541054
0.561431
0.583349
0.606626
0.631144
0.656833
0.683657
0.711606
0.740686
0.770912
0.802301
0.834871
0.868638
0.903608
0.939785
0.977161
1.01572
1.05542
1.09616
1.138
1.18094
1.22492
1.26989
1.31578
1.36254
1.41011
1.45842
1.50741
1.55701
1.60715
1.65777
1.70879
1.76014
1.81172
1.86347
1.91529
1.96708
2.01874
2.07016
2.12122
2.1718
2.22176
2.27094
2.31921
2.3664
2.41233
2.45683
2.49972
2.54081
2.57991
2.61682
2.65136
2.68333
2.71255
2.73885
2.76206
2.78203
2.79863
2.81174
2.82125
2.82708
2.8292
2.8276
2.82224
2.81317
2.80044
2.78413
2.76432
2.74114
2.71471
2.6852
2.65276
2.61759
2.57988
2.53984
2.49766
2.45357
2.40779
2.36052
2.31197
2.26236
2.21189
2.16075
2.10912
2.05718
2.0051
1.95301
1.90108
1.84942
1.79815
1.74738
1.69721
1.64773
1.59901
1.55112
1.50413
1.45807
1.413
1.36895
1.32594
1.284
1.24313
1.20336
1.16469
1.12711
1.09062
1.05522
1.02089
0.987628
0.955413
0.924231
0.894063
0.864889
0.836688
0.80944
0.783121
0.75771
0.733181
0.709513
0.68668
0.66466
0.643429
0.622963
0.60324
0.584237
0.56593
0.548297
0.531317
0.514967
0.499228
0.484079
0.4695
0.455473
0.441978
0.428998
0.416515
0.404512
0.392971
0.381878
0.371217
0.360974
0.351132
0.341681
0.332603
0.323888
0.315522
0.307494
0.299796
0.29242
0.285357
0.278597
0.272133
0.265956
0.260057
0.254427
0.24906
0.243948
0.239084
0.234463
0.23008
0.225933
0.222022
0.218348
0.21492
0.211753
0.208872
0.206302
0.20411
0.202254
0.201299
1.7306
0.762117
0.566934
0.503135
0.479575
0.473149
0.475598
0.483863
0.496168
0.511488
0.52918
0.548847
0.570227
0.593149
0.617503
0.643226
0.670287
0.698678
0.728405
0.759484
0.791935
0.825778
0.861028
0.897693
0.935784
0.975274
1.01611
1.05817
1.10161
1.14641
1.19251
1.23984
1.28834
1.33793
1.38855
1.44011
1.49254
1.54576
1.59967
1.6542
1.70924
1.76472
1.82052
1.87655
1.93271
1.98888
2.04495
2.1008
2.1563
2.21132
2.26571
2.31932
2.372
2.42357
2.47387
2.52271
2.56991
2.61527
2.65861
2.69973
2.73844
2.77453
2.80783
2.83814
2.86529
2.88913
2.9095
2.92627
2.93934
2.9486
2.95399
2.95547
2.95306
2.94666
2.93638
2.9223
2.9045
2.88307
2.85815
2.82988
2.79842
2.76395
2.72667
2.68677
2.64448
2.60001
2.55357
2.5054
2.45572
2.40473
2.35266
2.29971
2.24609
2.19197
2.13755
2.08299
2.02845
1.97406
1.91998
1.86631
1.81318
1.76068
1.7089
1.65793
1.60783
1.55866
1.51049
1.46334
1.41726
1.37228
1.32841
1.28567
1.24409
1.20364
1.16435
1.12621
1.0892
1.05332
1.01856
0.984904
0.952327
0.920815
0.890346
0.8609
0.832454
0.804983
0.778465
0.752873
0.728184
0.704373
0.681413
0.659281
0.637952
0.617402
0.597605
0.578538
0.560178
0.542501
0.525484
0.509106
0.493345
0.47818
0.463592
0.449559
0.436064
0.423087
0.410611
0.398617
0.387089
0.376011
0.365367
0.355141
0.345319
0.335887
0.32683
0.318136
0.309791
0.301786
0.294104
0.28674
0.279686
0.272933
0.266472
0.260295
0.254395
0.248762
0.243391
0.238273
0.233403
0.228776
0.22439
0.220242
0.216334
0.212673
0.209268
0.206139
0.203307
0.200821
0.198647
0.197182
1.69583
0.758973
0.56351
0.497441
0.471667
0.463656
0.46506
0.472513
0.484147
0.498917
0.516195
0.53559
0.556852
0.579823
0.604404
0.630543
0.658215
0.687421
0.71817
0.75048
0.784376
0.819896
0.85704
0.895788
0.936115
0.977921
1.02132
1.06638
1.11308
1.16135
1.21111
1.26229
1.31481
1.36859
1.42354
1.47957
1.53657
1.59444
1.65306
1.71234
1.77215
1.83238
1.8929
1.95358
2.0143
2.07493
2.13532
2.19534
2.25484
2.31366
2.37165
2.42863
2.48444
2.53891
2.59184
2.64305
2.69235
2.73955
2.78445
2.82686
2.8666
2.90346
2.93727
2.96785
2.99504
3.01868
3.03865
3.05482
3.06709
3.07539
3.07967
3.07986
3.07604
3.06805
3.0561
3.04025
3.02059
2.99724
2.97032
2.94
2.90644
2.86984
2.83039
2.78829
2.74377
2.69705
2.64836
2.59792
2.54595
2.49268
2.43832
2.38308
2.32717
2.27077
2.21408
2.15726
2.10046
2.04385
1.98756
1.93171
1.87641
1.82178
1.7679
1.71486
1.66273
1.61157
1.56143
1.51237
1.46441
1.41759
1.37193
1.32745
1.28416
1.24206
1.20116
1.16146
1.12293
1.08559
1.0494
1.01437
0.980459
0.947662
0.915953
0.885311
0.855712
0.827131
0.799543
0.772923
0.747245
0.722483
0.698611
0.675603
0.653432
0.632074
0.611503
0.591693
0.572621
0.554261
0.536591
0.519586
0.503225
0.487485
0.472345
0.457785
0.443784
0.430322
0.417381
0.404943
0.392988
0.381501
0.370464
0.359861
0.349677
0.339898
0.330507
0.321492
0.312839
0.304536
0.296569
0.288927
0.281597
0.274574
0.267848
0.261412
0.255257
0.249376
0.243761
0.238405
0.233302
0.228447
0.223836
0.219467
0.21534
0.21146
0.207833
0.204475
0.201401
0.198647
0.196188
0.194298
1.63357
0.748043
0.554888
0.487924
0.461237
0.452473
0.453331
0.460374
0.471738
0.486384
0.503691
0.523278
0.544905
0.568426
0.593746
0.620822
0.649642
0.680231
0.712582
0.746693
0.782578
0.820231
0.859562
0.900706
0.943734
0.988708
1.0356
1.08441
1.13507
1.18746
1.24153
1.29719
1.35434
1.41289
1.47272
1.53371
1.59574
1.65868
1.72239
1.78672
1.85154
1.9167
1.98204
2.04741
2.11266
2.17762
2.24214
2.30605
2.36918
2.43136
2.49242
2.55218
2.61045
2.66705
2.7218
2.7745
2.82497
2.87302
2.91846
2.9611
3.00078
3.03731
3.07053
3.10028
3.12641
3.1488
3.16733
3.18191
3.19245
3.1989
3.20121
3.19943
3.19342
3.18325
3.16909
3.151
3.12909
3.10348
3.07431
3.04174
3.00595
2.96714
2.92549
2.88121
2.83454
2.78569
2.73488
2.68234
2.62829
2.57296
2.51656
2.45929
2.40136
2.34297
2.28429
2.2255
2.16675
2.10821
2.04999
1.99224
1.93507
1.87857
1.82286
1.76801
1.71409
1.66117
1.6093
1.55854
1.50891
1.46046
1.4132
1.36715
1.32233
1.27874
1.23638
1.19525
1.15535
1.11666
1.07917
1.04287
1.00773
0.973748
0.94089
0.909136
0.878462
0.848843
0.820255
0.79267
0.766062
0.740405
0.715671
0.691833
0.668865
0.646741
0.625434
0.604917
0.585166
0.566154
0.547859
0.530254
0.513318
0.497027
0.481359
0.466292
0.451805
0.437878
0.42449
0.411623
0.399258
0.387377
0.375962
0.364997
0.354465
0.344351
0.33464
0.325316
0.316366
0.307777
0.299536
0.291629
0.284045
0.276772
0.269801
0.263123
0.256732
0.250619
0.244776
0.239198
0.233877
0.228808
0.223987
0.219411
0.215079
0.210994
0.20716
0.203588
0.20029
0.197292
0.194576
0.192328
1.55373
0.728737
0.54225
0.476539
0.449954
0.441069
0.441936
0.449093
0.460726
0.475815
0.493753
0.51417
0.536848
0.561689
0.588542
0.617351
0.648089
0.68072
0.715153
0.751535
0.789951
0.830467
0.873163
0.918033
0.965093
1.01435
1.0658
1.11932
1.17481
1.23221
1.29142
1.35233
1.41484
1.47881
1.54411
1.61058
1.67806
1.7464
1.81543
1.88496
1.95483
2.02485
2.09485
2.16464
2.23403
2.30285
2.37091
2.43803
2.50402
2.5687
2.63187
2.69335
2.75296
2.81051
2.86581
2.91869
2.96897
3.01646
3.06101
3.10245
3.14063
3.17538
3.20658
3.2341
3.25782
3.27765
3.2935
3.3053
3.31301
3.31658
3.316
3.3113
3.30231
3.28931
3.27235
3.25152
3.22695
3.19875
3.16707
3.13208
3.09396
3.05289
3.00907
2.9627
2.914
2.86318
2.81046
2.75607
2.70021
2.64312
2.58498
2.52602
2.46642
2.40638
2.34607
2.28567
2.22534
2.16521
2.10543
2.04613
1.98741
1.9294
1.87217
1.81582
1.76042
1.70604
1.65273
1.60054
1.54951
1.49967
1.45104
1.40366
1.35752
1.31264
1.26902
1.22666
1.18554
1.14568
1.10704
1.06962
1.03339
0.998351
0.964464
0.931713
0.900072
0.869517
0.840023
0.811561
0.784107
0.757632
0.732108
0.70751
0.683809
0.660978
0.63899
0.617819
0.597438
0.577821
0.558943
0.54078
0.523306
0.506499
0.490336
0.474793
0.45985
0.445485
0.431677
0.418407
0.405655
0.393402
0.38163
0.370323
0.359462
0.349032
0.339016
0.329401
0.32017
0.31131
0.302808
0.294651
0.286825
0.279319
0.272122
0.265222
0.258612
0.252284
0.246231
0.240445
0.234921
0.229653
0.224636
0.219866
0.215342
0.211065
0.207038
0.203267
0.199762
0.196541
0.193592
0.191038
1.46701
0.70787
0.528634
0.465037
0.439389
0.431158
0.432758
0.440776
0.453537
0.470022
0.489588
0.511852
0.536547
0.563432
0.592477
0.623737
0.657242
0.693038
0.731188
0.771687
0.814567
0.859865
0.907619
0.957841
1.01053
1.06558
1.12287
1.18233
1.24388
1.30739
1.37275
1.43983
1.50847
1.5785
1.64976
1.72205
1.79519
1.86899
1.94323
2.01772
2.09225
2.1666
2.24058
2.31397
2.38657
2.45818
2.5286
2.59764
2.66508
2.73075
2.79446
2.85602
2.91524
2.97196
3.02601
3.07722
3.12543
3.1705
3.21228
3.25066
3.28549
3.31668
3.34411
3.36772
3.38741
3.40313
3.41485
3.42252
3.42616
3.42569
3.42122
3.41251
3.39986
3.38331
3.36297
3.33892
3.31128
3.28019
3.2458
3.20828
3.16778
3.12448
3.07857
3.03024
2.9797
2.92716
2.87281
2.81687
2.75955
2.70105
2.64156
2.58129
2.52043
2.45915
2.39763
2.33605
2.27453
2.21324
2.15231
2.09186
2.032
1.97284
1.91448
1.857
1.80047
1.74497
1.69054
1.63724
1.58511
1.53417
1.48447
1.43601
1.38881
1.34289
1.29823
1.25485
1.21274
1.1719
1.1323
1.09393
1.05679
1.02085
0.986081
0.952474
0.92
0.888634
0.858351
0.829124
0.800927
0.773732
0.747512
0.72224
0.697887
0.674425
0.651829
0.63007
0.609123
0.588959
0.569555
0.550885
0.532924
0.515647
0.499032
0.483055
0.467694
0.452926
0.438732
0.425091
0.411981
0.399385
0.387284
0.375659
0.364493
0.353769
0.343471
0.333583
0.324091
0.314979
0.306233
0.297841
0.289789
0.282065
0.274657
0.267553
0.260742
0.254217
0.247969
0.241993
0.236281
0.230827
0.225627
0.220677
0.215974
0.211518
0.207309
0.203355
0.199658
0.196234
0.193071
0.190254
1.3726
0.682689
0.514013
0.454196
0.430865
0.4247
0.428406
0.438678
0.453808
0.47262
0.494772
0.520004
0.548157
0.579175
0.612963
0.649473
0.688697
0.730646
0.775337
0.822758
0.872889
0.925703
0.981174
1.03926
1.0998
1.16271
1.22785
1.29512
1.36436
1.43542
1.50814
1.58233
1.65781
1.73437
1.8118
1.8899
1.96843
2.04717
2.12591
2.2044
2.28243
2.35977
2.4362
2.51151
2.58546
2.65788
2.72854
2.79725
2.86383
2.92809
2.98985
3.04895
3.10523
3.15853
3.20871
3.25565
3.29922
3.33932
3.37583
3.40869
3.43781
3.46314
3.48461
3.5022
3.51589
3.52565
3.53151
3.53343
3.53158
3.52574
3.51595
3.50241
3.48516
3.46432
3.43994
3.41214
3.38103
3.34674
3.30942
3.26925
3.22635
3.18087
3.13299
3.08288
3.03073
2.97672
2.92106
2.86392
2.8055
2.74598
2.68555
2.6244
2.56269
2.50062
2.43834
2.376
2.31376
2.25174
2.19009
2.12891
2.06832
2.00842
1.94931
1.89108
1.8338
1.77753
1.72233
1.66826
1.61534
1.56362
1.51312
1.46387
1.41588
1.36916
1.32372
1.27956
1.23667
1.19505
1.15469
1.11557
1.07768
1.04101
1.00552
0.97121
0.938043
0.905999
0.875053
0.845179
0.81635
0.78854
0.761722
0.735867
0.710948
0.686938
0.66381
0.641535
0.620088
0.599442
0.579571
0.560449
0.542052
0.524354
0.507333
0.490964
0.475225
0.460094
0.445549
0.43157
0.418135
0.405225
0.392821
0.380905
0.369458
0.358464
0.347905
0.337766
0.328031
0.318685
0.309714
0.301104
0.292841
0.284913
0.277307
0.270012
0.263017
0.25631
0.249883
0.24373
0.237843
0.232218
0.226848
0.22173
0.216859
0.212235
0.207859
0.203731
0.199857
0.196246
0.192889
0.189842
1.28446
0.655107
0.499804
0.446323
0.427697
0.42547
0.432468
0.446486
0.465972
0.490173
0.518535
0.550756
0.586651
0.626102
0.668994
0.715224
0.764704
0.817348
0.873064
0.931789
0.993391
1.05767
1.12442
1.19342
1.26454
1.33763
1.41251
1.48901
1.56692
1.64607
1.72624
1.80722
1.88881
1.97079
2.05293
2.13502
2.21683
2.29815
2.37874
2.45839
2.53689
2.61401
2.68956
2.76332
2.8351
2.90471
2.97197
3.0367
3.09875
3.15795
3.21416
3.26725
3.31708
3.36355
3.40656
3.44601
3.48184
3.514
3.54242
3.56707
3.58794
3.60503
3.61833
3.62785
3.63369
3.63575
3.63427
3.62914
3.62028
3.60796
3.59219
3.57304
3.55059
3.52498
3.49622
3.46442
3.42969
3.39216
3.35194
3.30914
3.26391
3.21643
3.16683
3.11527
3.06191
3.0069
2.95041
2.8926
2.83363
2.77368
2.71289
2.65144
2.5895
2.52722
2.46474
2.40221
2.33977
2.27755
2.21569
2.1543
2.09348
2.03334
1.97396
1.91544
1.85786
1.80127
1.74574
1.6913
1.638
1.58587
1.53496
1.48527
1.43684
1.38966
1.34375
1.29911
1.25573
1.21362
1.17276
1.13314
1.09475
1.05757
1.02158