/*--------------------------------*- C++ -*----------------------------------*\
  =========                 |
  \\      /  F ield         | OpenFOAM: The Open Source CFD Toolbox
   \\    /   O peration     | Website:  https://openfoam.org
    \\  /    A nd           | Version:  7
     \\/     M anipulation  |
\*---------------------------------------------------------------------------*/
FoamFile
{
    version     2.0;
    format      ascii;
    class       volScalarField;
    location    "100";
    object      k;
}
// * * * * * * * * * * * * * * * * * * * * * * * * * * * * * * * * * * * * * //

dimensions      [0 2 -2 0 0 0 0];

internalField   nonuniform List<scalar> 
12225
(
0.233345
0.116785
0.100288
0.0928431
0.0876376
0.0833023
0.0795125
0.076144
0.0731244
0.070405
0.0679484
0.0657255
0.0637133
0.0618954
0.0602666
0.0588429
0.0576098
0.0575803
0.315612
0.236007
0.214588
0.203232
0.194935
0.187957
0.181806
0.176296
0.171319
0.166803
0.162693
0.158944
0.155518
0.152383
0.149506
0.146832
0.144327
0.141487
0.347026
0.295217
0.273453
0.260085
0.24986
0.241118
0.233318
0.226256
0.21982
0.213932
0.208533
0.203571
0.199003
0.194784
0.190865
0.187176
0.183659
0.179862
0.363262
0.332136
0.313062
0.299361
0.288236
0.278473
0.269631
0.261539
0.254103
0.247254
0.240938
0.235104
0.229704
0.224689
0.220002
0.215574
0.211345
0.207094
0.372813
0.357365
0.342529
0.329784
0.31855
0.308309
0.298839
0.290053
0.281901
0.274338
0.26732
0.260804
0.254744
0.249092
0.24379
0.238778
0.234013
0.229412
0.378781
0.374555
0.364836
0.354031
0.343383
0.333156
0.323428
0.314243
0.305614
0.297536
0.289988
0.28294
0.276353
0.270184
0.264384
0.258905
0.253724
0.248822
0.382231
0.385812
0.381209
0.373056
0.363613
0.353871
0.344252
0.33496
0.326094
0.3177
0.309789
0.302352
0.295366
0.288796
0.282606
0.276763
0.271262
0.266105
0.383613
0.392609
0.392085
0.387213
0.379461
0.370643
0.361498
0.352401
0.343549
0.33505
0.326956
0.319287
0.312038
0.305191
0.298724
0.292622
0.286887
0.281527
0.383452
0.395396
0.398454
0.396271
0.390873
0.383354
0.375035
0.36644
0.357867
0.34949
0.34141
0.33368
0.326322
0.319335
0.312715
0.306462
0.300585
0.295087
0.382195
0.394946
0.400647
0.400552
0.397561
0.391744
0.38459
0.37679
0.368759
0.360741
0.352886
0.345286
0.337987
0.331013
0.324377
0.318093
0.312173
0.306619
0.380303
0.391935
0.399009
0.400867
0.399474
0.395599
0.389782
0.383046
0.37583
0.368427
0.361029
0.35376
0.346702
0.339905
0.3334
0.327214
0.321364
0.315852
0.378357
0.387582
0.3946
0.397634
0.397311
0.395046
0.390582
0.384898
0.378548
0.371865
0.365067
0.35829
0.351633
0.345164
0.33893
0.332961
0.327287
0.321916
0.376505
0.382508
0.38844
0.39185
0.3923
0.391102
0.388044
0.383441
0.378054
0.372191
0.366081
0.359889
0.35373
0.347686
0.341818
0.336176
0.330783
0.325652
0.374733
0.37647
0.380099
0.38281
0.383537
0.382947
0.381055
0.377602
0.37331
0.368454
0.363252
0.357868
0.352426
0.347018
0.34171
0.336552
0.33158
0.326821
0.372733
0.370591
0.37069
0.371198
0.371158
0.370558
0.369084
0.366534
0.363259
0.359445
0.355259
0.350838
0.346292
0.34171
0.337157
0.332684
0.328331
0.324135
0.371141
0.365261
0.361476
0.358994
0.357028
0.355201
0.353225
0.350887
0.348175
0.345134
0.341835
0.338349
0.334744
0.33108
0.327406
0.323762
0.320181
0.316705
0.369959
0.361274
0.354293
0.348758
0.344259
0.34048
0.337174
0.334131
0.331213
0.328341
0.325475
0.3226
0.319718
0.316837
0.313969
0.311128
0.308329
0.305597
0.369316
0.359173
0.350476
0.343116
0.336887
0.331595
0.327064
0.323129
0.319645
0.316494
0.313588
0.31086
0.308263
0.305765
0.303343
0.300985
0.298684
0.296446
0.369502
0.359742
0.351462
0.344528
0.3387
0.333756
0.329506
0.325777
0.322429
0.319353
0.316472
0.313731
0.311093
0.308535
0.30604
0.303601
0.301212
0.29886
0.370694
0.363754
0.358748
0.355113
0.352244
0.349767
0.347403
0.344943
0.342311
0.339495
0.336515
0.333406
0.330208
0.326959
0.323693
0.32044
0.31722
0.314046
0.372681
0.370363
0.370273
0.370544
0.370453
0.369853
0.368436
0.366035
0.362943
0.359328
0.355343
0.351119
0.346762
0.342355
0.337958
0.333619
0.329372
0.325238
0.375596
0.379059
0.383892
0.387063
0.387852
0.387096
0.384851
0.381016
0.376356
0.371163
0.365656
0.360007
0.354338
0.348734
0.343253
0.337934
0.332804
0.327884
0.378753
0.388342
0.395533
0.398414
0.397909
0.395395
0.390605
0.384722
0.378218
0.371415
0.364558
0.357768
0.351128
0.344693
0.338501
0.332572
0.326918
0.32155
0.381899
0.394271
0.400213
0.400129
0.397266
0.391594
0.384584
0.376921
0.369004
0.361084
0.3533
0.345757
0.338518
0.331616
0.325065
0.318863
0.313006
0.307493
0.383409
0.393682
0.395133
0.391693
0.384905
0.376614
0.367739
0.358763
0.349942
0.341419
0.333261
0.325518
0.318201
0.311307
0.304821
0.298728
0.29301
0.287661
0.38171
0.384445
0.379876
0.371233
0.361443
0.351454
0.341668
0.332246
0.323276
0.314797
0.306818
0.299333
0.292328
0.285778
0.279656
0.273935
0.268589
0.263613
0.375351
0.364933
0.352088
0.339757
0.328387
0.317858
0.308049
0.298893
0.290357
0.282407
0.27501
0.268131
0.261734
0.255786
0.250251
0.245099
0.240298
0.235851
0.36315
0.3302
0.310878
0.29683
0.285367
0.27536
0.266322
0.258049
0.250441
0.243428
0.236953
0.230969
0.225432
0.220305
0.215551
0.211141
0.207037
0.203262
0.338595
0.272955
0.249923
0.236562
0.226531
0.218081
0.210586
0.203812
0.197645
0.192008
0.186838
0.182088
0.177717
0.173687
0.169967
0.166531
0.163333
0.160434
0.277118
0.165425
0.142182
0.131305
0.123814
0.117684
0.112314
0.107503
0.103152
0.0991985
0.0955932
0.0922978
0.0892793
0.0865107
0.0839632
0.0816287
0.0794443
0.0775
0.000107168
0.000731334
0.00140745
0.0019549
0.00240553
0.00287503
0.00337137
0.00393179
0.00459064
0.00537074
0.00628442
0.00733493
0.00851479
0.00980602
0.0111856
0.0126334
0.0141322
0.0156693
0.0172329
0.0188164
0.0204143
0.0220258
0.0236312
0.0252257
0.0268064
0.0283737
0.0299253
0.0314627
0.032984
0.0344912
0.0359824
0.03746
0.0389219
0.0403703
0.0418031
0.0432225
0.0446256
0.0460149
0.0473868
0.0487437
0.0500817
0.0514029
0.052703
0.0539839
0.055241
0.0564763
0.0576849
0.0588691
0.060025
0.0611564
0.0622624
0.0633367
0.0643742
0.0653765
0.0663381
0.0672599
0.0681363
0.0689677
0.0697488
0.0704799
0.0711557
0.0717764
0.0723374
0.0728388
0.0732765
0.0736503
0.0739566
0.0741942
0.0743578
0.0744539
0.0744718
0.0744376
0.0743252
0.0741408
0.0738844
0.0735559
0.0731574
0.0726896
0.0721558
0.0715565
0.0708965
0.0701762
0.0694013
0.0685716
0.0676945
0.0667698
0.0658048
0.0647995
0.0637599
0.0626873
0.0615844
0.0604561
0.0593065
0.0581395
0.0569594
0.0557684
0.0545667
0.053358
0.0521454
0.050932
0.0497205
0.0485135
0.0473135
0.0461226
0.0449434
0.0437773
0.0426264
0.0414915
0.0403743
0.0392763
0.0381921
0.0371187
0.036064
0.0350305
0.0340204
0.0330342
0.0320727
0.0311363
0.0302263
0.0293431
0.0284822
0.0276424
0.0268251
0.0260311
0.0252616
0.0245161
0.0237955
0.0230994
0.0224278
0.0217799
0.0211556
0.0205537
0.0199727
0.0194116
0.0188706
0.0183493
0.0178478
0.0173654
0.0169023
0.0164577
0.0160311
0.0156216
0.0152285
0.0148512
0.0144895
0.0141429
0.0138111
0.0134935
0.0131898
0.0128994
0.0126218
0.0123566
0.0121034
0.0118618
0.0116319
0.0114128
0.0112039
0.0110048
0.010815
0.0106342
0.0104621
0.0102981
0.010142
0.00999313
0.00985129
0.00971579
0.00958665
0.00946254
0.00934464
0.00922953
0.00912098
0.00901498
0.00891792
0.00881738
0.00872217
0.00862975
0.00852017
0.00842226
0.00829319
0.0076456
0.000626162
0.00362118
0.00587938
0.00745233
0.00870876
0.00982486
0.010945
0.0121451
0.0134537
0.0148709
0.0163882
0.0179955
0.019679
0.0214224
0.0232093
0.0250261
0.0268611
0.0287058
0.0305532
0.0323988
0.0342392
0.0360723
0.0378953
0.0397081
0.0415104
0.0433028
0.0450852
0.0468582
0.0486215
0.0503755
0.0521198
0.0538547
0.0555798
0.0572952
0.0590003
0.0606953
0.0623794
0.0640526
0.0657137
0.0673628
0.0689981
0.0706194
0.0722248
0.0738135
0.075383
0.076932
0.0784575
0.0799574
0.0814276
0.0828646
0.0842625
0.0856246
0.0869509
0.0882399
0.0894881
0.090693
0.0918504
0.0929575
0.0940102
0.0950052
0.0959386
0.0968072
0.0976071
0.0983354
0.0989885
0.099564
0.100059
0.100471
0.100799
0.101036
0.101171
0.101222
0.101196
0.101076
0.100866
0.100565
0.100176
0.0997009
0.0991412
0.0984997
0.0977795
0.0969835
0.0961158
0.0951797
0.0941798
0.0931199
0.0920049
0.0908387
0.0896259
0.0883704
0.0870762
0.0857481
0.0843908
0.0830089
0.0816066
0.0801872
0.0787531
0.0773081
0.075856
0.0744004
0.0729445
0.0714916
0.0700446
0.0686063
0.0671791
0.0657655
0.0643673
0.0629863
0.061624
0.0602819
0.0589599
0.0576586
0.0563794
0.0551239
0.0538932
0.0526881
0.0515092
0.0503569
0.049232
0.0481349
0.0470592
0.0460052
0.0449761
0.0439734
0.042998
0.04205
0.0411299
0.0402379
0.0393736
0.0385365
0.0377263
0.0369418
0.0361806
0.0354427
0.0347286
0.0340383
0.0333719
0.032729
0.0321092
0.0315123
0.0309375
0.0303839
0.0298509
0.0293381
0.0288453
0.0283721
0.0279182
0.0274832
0.0270664
0.0266673
0.0262854
0.0259204
0.0255718
0.0252391
0.0249211
0.0246179
0.0243291
0.0240544
0.0237933
0.0235453
0.0233099
0.0230865
0.0228745
0.0226734
0.0224827
0.0223018
0.0221302
0.0219669
0.0218122
0.0216639
0.0215242
0.0213891
0.0212666
0.0211436
0.0210287
0.0209228
0.020805
0.0207161
0.0206508
0.0200549
0.00150329
0.00704499
0.0103234
0.0125814
0.014436
0.0161291
0.017788
0.019479
0.0212272
0.0230334
0.024888
0.0267801
0.0287005
0.0306433
0.0326042
0.0345785
0.036562
0.0385512
0.0405437
0.0425378
0.044532
0.0465249
0.0485155
0.0505028
0.0524859
0.0544641
0.0564364
0.0584023
0.0603607
0.0623112
0.0642528
0.0661853
0.0681078
0.0700203
0.0719219
0.0738125
0.0756916
0.0775587
0.0794132
0.0812546
0.083082
0.0848947
0.0866915
0.0884712
0.0902323
0.0919733
0.0936921
0.0953868
0.0970549
0.0986943
0.100302
0.101877
0.103415
0.104914
0.10637
0.107779
0.109137
0.110439
0.111682
0.112861
0.113971
0.115008
0.115968
0.116847
0.11764
0.118344
0.118956
0.119472
0.11989
0.120206
0.12041
0.120503
0.120507
0.120404
0.120195
0.119881
0.119462
0.118942
0.118322
0.117606
0.116796
0.115896
0.114911
0.113844
0.112702
0.111487
0.110206
0.108863
0.107465
0.106014
0.104518
0.10298
0.101405
0.0998004
0.0981697
0.096518
0.0948496
0.0931684
0.0914784
0.0897835
0.0880876
0.0863942
0.0847066
0.083028
0.0813612
0.0797089
0.0780732
0.0764563
0.0748598
0.0732855
0.0717341
0.0702068
0.0687048
0.0672293
0.0657811
0.0643612
0.06297
0.0616082
0.0602759
0.0589734
0.0576995
0.0564536
0.0552362
0.0540481
0.0528896
0.0517607
0.0506617
0.0495925
0.0485531
0.0475432
0.0465623
0.045609
0.0446795
0.043776
0.0428991
0.0420489
0.0412254
0.0404283
0.0396571
0.0389118
0.0381911
0.0374939
0.0368201
0.0361694
0.0355417
0.0349367
0.034354
0.0337931
0.0332533
0.0327341
0.0322353
0.0317563
0.0312968
0.0308562
0.0304338
0.0300291
0.0296417
0.0292712
0.0289171
0.028579
0.0282562
0.0279483
0.0276547
0.0273748
0.027108
0.0268537
0.0266114
0.0263802
0.0261599
0.0259494
0.025749
0.0255573
0.0253772
0.0252041
0.0250415
0.0248937
0.0247496
0.0246449
0.0245884
0.0242051
0.00256687
0.0102976
0.0144477
0.0172286
0.0194692
0.0214725
0.0233889
0.0252959
0.0272279
0.0291941
0.031192
0.0332159
0.0352607
0.0373233
0.039401
0.0414921
0.0435947
0.0457076
0.0478292
0.049958
0.0520922
0.0542304
0.0563707
0.0585117
0.0606519
0.0627899
0.0649242
0.0670539
0.0691776
0.0712944
0.0734033
0.0755036
0.0775946
0.0796757
0.0817462
0.0838058
0.0858538
0.08789
0.0899136
0.0919241
0.0939209
0.0959032
0.09787
0.0998203
0.101753
0.103666
0.105558
0.107427
0.10927
0.111086
0.112871
0.114622
0.116336
0.118009
0.119636
0.121214
0.122738
0.124202
0.125603
0.126934
0.128191
0.129368
0.130462
0.131465
0.132375
0.133186
0.133895
0.134498
0.13499
0.135371
0.135632
0.135763
0.135792
0.135702
0.135493
0.135165
0.13472
0.13416
0.133487
0.132704
0.131815
0.130825
0.129736
0.128555
0.127287
0.125937
0.124511
0.123014
0.121452
0.119831
0.118157
0.116435
0.114673
0.112875
0.111047
0.109195
0.107323
0.105438
0.103542
0.10164
0.0997376
0.0978373
0.0959432
0.0940588
0.0921872
0.0903313
0.0884936
0.0866764
0.0848817
0.0831112
0.0813663
0.0796483
0.0779585
0.0762979
0.0746676
0.0730682
0.0715004
0.0699648
0.0684615
0.0669909
0.0655525
0.0641462
0.062772
0.0614301
0.0601206
0.0588435
0.0575986
0.056386
0.0552054
0.0540566
0.0529393
0.0518527
0.0507953
0.0497669
0.0487675
0.047797
0.0468552
0.0459417
0.0450562
0.0441985
0.0433668
0.0425598
0.0417782
0.041022
0.040291
0.039585
0.0389034
0.0382456
0.0376109
0.036999
0.0364095
0.0358421
0.0352964
0.0347718
0.0342677
0.0337836
0.033319
0.0328735
0.0324464
0.0320374
0.0316459
0.0312714
0.0309131
0.0305707
0.0302434
0.0299307
0.0296319
0.0293464
0.0290737
0.028813
0.0285642
0.0283267
0.0281015
0.0278874
0.027685
0.0275004
0.0273298
0.0271954
0.027119
0.0268376
0.00359549
0.0131699
0.0180383
0.0212448
0.023778
0.0259883
0.0280514
0.0300623
0.0320709
0.0341001
0.0361576
0.0382438
0.0403565
0.0424935
0.0446523
0.046831
0.0490278
0.0512409
0.0534686
0.0557089
0.0579599
0.0602197
0.0624862
0.0647576
0.067032
0.0693078
0.0715832
0.0738568
0.076127
0.0783928
0.0806526
0.0829057
0.0851508
0.0873874
0.0896144
0.0918313
0.0940374
0.0962321
0.0984147
0.100585
0.102741
0.104884
0.107011
0.109122
0.111216
0.113291
0.115345
0.117376
0.119381
0.121359
0.123305
0.125217
0.12709
0.128921
0.130705
0.132436
0.134111
0.135723
0.137267
0.138738
0.140129
0.141436
0.142652
0.143771
0.14479
0.145701
0.146502
0.147186
0.147752
0.148194
0.14851
0.148685
0.14874
0.148667
0.148463
0.148129
0.147666
0.147075
0.14636
0.145523
0.144568
0.143501
0.142325
0.141046
0.139669
0.138201
0.136648
0.135016
0.133311
0.13154
0.12971
0.127828
0.1259
0.123932
0.121931
0.119903
0.117853
0.115787
0.11371
0.111627
0.109542
0.107459
0.105383
0.103317
0.101265
0.0992294
0.0972138
0.0952202
0.0932511
0.0913081
0.0893932
0.0875076
0.0856527
0.0838297
0.0820395
0.080283
0.0785609
0.0768735
0.0752214
0.0736045
0.072023
0.0704767
0.0689657
0.06749
0.0660494
0.0646439
0.0632734
0.0619375
0.0606361
0.0593689
0.0581355
0.0569354
0.0557676
0.0546317
0.0535273
0.052454
0.0514115
0.0503995
0.0494175
0.0484651
0.0475413
0.0466454
0.0457769
0.0449356
0.0441212
0.0433334
0.0425716
0.0418348
0.0411222
0.040434
0.0397701
0.0391299
0.0385131
0.037919
0.037347
0.0367968
0.0362679
0.0357597
0.0352717
0.0348034
0.0343543
0.0339238
0.0335113
0.0331162
0.032738
0.0323759
0.0320295
0.031698
0.0313809
0.0310776
0.0307879
0.0305113
0.0302483
0.0299989
0.0297634
0.0295464
0.0293488
0.029184
0.0290824
0.028837
0.00447429
0.0154928
0.0209351
0.024488
0.0272588
0.0296341
0.0318087
0.0338922
0.035948
0.0380115
0.0401
0.0422205
0.0443745
0.046561
0.048778
0.0510229
0.053293
0.0555864
0.0579006
0.0602335
0.0625828
0.0649464
0.0673219
0.0697075
0.0721009
0.0745002
0.0769034
0.0793088
0.0817144
0.0841188
0.0865202
0.0889174
0.091309
0.0936939
0.0960708
0.098439
0.100797
0.103145
0.105481
0.107806
0.110117
0.112414
0.114696
0.116962
0.119211
0.121441
0.123649
0.125834
0.127994
0.130125
0.132223
0.134286
0.136309
0.138288
0.140218
0.142094
0.14391
0.145661
0.147341
0.148943
0.150462
0.151891
0.153223
0.154454
0.155576
0.156585
0.157475
0.158241
0.158878
0.159384
0.159754
0.159977
0.160064
0.160014
0.159822
0.159489
0.159016
0.158404
0.157657
0.156778
0.15577
0.154638
0.153388
0.152026
0.150556
0.148986
0.147322
0.145572
0.143742
0.14184
0.139873
0.137849
0.135774
0.133656
0.131502
0.129317
0.127109
0.124882
0.122643
0.120397
0.118149
0.115902
0.113663
0.111434
0.10922
0.107023
0.104848
0.102696
0.10057
0.0984717
0.0964036
0.0943671
0.0923637
0.0903944
0.0884604
0.0865626
0.0847016
0.0828779
0.081092
0.079344
0.077634
0.0759621
0.0743282
0.0727323
0.0711743
0.069654
0.0681711
0.0667254
0.0653165
0.0639441
0.0626079
0.0613073
0.0600417
0.0588104
0.0576129
0.0564488
0.0553177
0.054219
0.0531523
0.052117
0.0511125
0.050138
0.049193
0.0482771
0.0473898
0.0465307
0.0456992
0.0448947
0.0441164
0.0433641
0.0426372
0.0419355
0.0412584
0.040605
0.039975
0.039368
0.0387837
0.0382216
0.0376809
0.0371613
0.0366622
0.0361831
0.0357234
0.0352824
0.0348596
0.0344545
0.0340662
0.0336944
0.0333383
0.0329976
0.0326718
0.0323606
0.0320644
0.0317835
0.0315185
0.0312728
0.0310486
0.0308551
0.0307233
0.0304791
0.00515197
0.0172389
0.0231141
0.0269385
0.0299051
0.0324253
0.0347037
0.0368592
0.0389641
0.0410625
0.0431794
0.0453281
0.047514
0.0497384
0.052
0.0542962
0.0566248
0.0589834
0.0613696
0.0637808
0.0662146
0.0686688
0.071141
0.0736289
0.0761302
0.0786427
0.0811642
0.0836926
0.0862256
0.0887614
0.091298
0.0938335
0.0963663
0.0988947
0.101417
0.103932
0.106439
0.108937
0.111423
0.113898
0.116361
0.118809
0.121242
0.123659
0.126059
0.128438
0.130796
0.13313
0.135437
0.137714
0.139958
0.142165
0.14433
0.14645
0.148518
0.15053
0.15248
0.154362
0.15617
0.157897
0.159536
0.16108
0.162524
0.163861
0.165083
0.166186
0.167162
0.168008
0.168717
0.169287
0.169712
0.169985
0.170109
0.170086
0.169912
0.169587
0.169112
0.168488
0.167719
0.166807
0.165757
0.164573
0.163262
0.161829
0.16028
0.158622
0.156864
0.155011
0.153073
0.151056
0.148969
0.14682
0.144616
0.142366
0.140075
0.137751
0.135402
0.133032
0.130648
0.128256
0.12586
0.123467
0.12108
0.118705
0.116344
0.114002
0.111681
0.109385
0.107117
0.104878
0.102671
0.100497
0.0983588
0.0962565
0.0941916
0.0921651
0.0901777
0.08823
0.0863224
0.084455
0.0826282
0.080842
0.0790964
0.0773912
0.0757264
0.0741017
0.0725168
0.0709714
0.0694651
0.0679977
0.0665685
0.0651772
0.0638231
0.0625056
0.0612242
0.0599782
0.0587673
0.0575907
0.0564481
0.0553386
0.0542619
0.0532171
0.0522037
0.0512211
0.0502687
0.0493461
0.0484527
0.047588
0.0467511
0.0459417
0.0451592
0.0444031
0.0436729
0.0429679
0.0422876
0.0416315
0.040999
0.0403897
0.039803
0.0392383
0.0386952
0.0381731
0.0376715
0.0371898
0.0367275
0.0362838
0.0358583
0.0354503
0.0350593
0.0346848
0.0343265
0.0339841
0.0336578
0.0333482
0.033056
0.032784
0.0325347
0.0323143
0.0321488
0.0318999
0.00562114
0.0184472
0.0246248
0.0286524
0.0317779
0.0344265
0.0368064
0.0390401
0.0412041
0.0433475
0.0455009
0.0476822
0.0499004
0.0521589
0.0544584
0.0567979
0.0591758
0.0615897
0.0640375
0.0665167
0.069025
0.0715599
0.0741193
0.0767005
0.0793013
0.0819191
0.0845516
0.0871962
0.0898505
0.0925122
0.0951788
0.097848
0.100518
0.103186
0.10585
0.10851
0.111162
0.113807
0.116441
0.119065
0.121676
0.124273
0.126855
0.129419
0.131965
0.13449
0.136993
0.139469
0.141918
0.144335
0.146717
0.149061
0.15136
0.153612
0.15581
0.15795
0.160025
0.162029
0.163955
0.165797
0.167548
0.1692
0.170747
0.172183
0.173499
0.174689
0.175748
0.17667
0.177448
0.17808
0.178559
0.178882
0.179045
0.179053
0.178902
0.17859
0.178118
0.17749
0.176706
0.175771
0.174689
0.173464
0.172103
0.170612
0.168998
0.167267
0.165429
0.16349
0.161459
0.159345
0.157155
0.154898
0.152582
0.150215
0.147805
0.145359
0.142884
0.140387
0.137875
0.135353
0.132827
0.130302
0.127783
0.125276
0.122783
0.120309
0.117858
0.115433
0.113036
0.11067
0.108336
0.106038
0.103777
0.101554
0.0993695
0.0972257
0.0951231
0.0930623
0.0910436
0.0890674
0.0871339
0.0852433
0.0833955
0.0815904
0.079828
0.0781078
0.0764297
0.0747933
0.0731982
0.0716439
0.0701301
0.0686561
0.0672214
0.0658255
0.0644676
0.0631472
0.0618637
0.0606164
0.0594049
0.0582284
0.0570862
0.0559779
0.0549026
0.0538598
0.0528488
0.0518691
0.0509201
0.0500012
0.0491117
0.048251
0.0474185
0.0466138
0.0458362
0.045085
0.0443598
0.0436599
0.0429847
0.0423337
0.0417062
0.0411017
0.0405197
0.0399595
0.0394205
0.0389024
0.0384046
0.0379263
0.0374671
0.0370263
0.0366037
0.0361985
0.0358105
0.0354396
0.0350857
0.0347496
0.034432
0.0341352
0.0338616
0.0336161
0.0334174
0.0331576
0.00589773
0.0191884
0.0255551
0.0297253
0.032974
0.0357328
0.0382092
0.0405244
0.0427562
0.0449556
0.0471557
0.0493767
0.0516309
0.0539247
0.056261
0.0586407
0.0610628
0.0635262
0.066029
0.0685693
0.0711448
0.0737534
0.0763929
0.0790607
0.0817544
0.0844715
0.0872091
0.0899647
0.0927354
0.0955184
0.0983108
0.10111
0.103913
0.106718
0.109523
0.112324
0.115121
0.117911
0.120692
0.123462
0.126219
0.128962
0.131689
0.134398
0.137086
0.139752
0.142394
0.145007
0.147591
0.15014
0.152652
0.155123
0.157547
0.15992
0.162237
0.164493
0.16668
0.168794
0.170826
0.172771
0.174622
0.17637
0.178009
0.179532
0.180932
0.182201
0.183334
0.184324
0.185166
0.185855
0.186385
0.186754
0.186957
0.186996
0.186868
0.186573
0.18611
0.185481
0.18469
0.18374
0.182635
0.181381
0.179982
0.178446
0.17678
0.174992
0.173089
0.171079
0.168973
0.166777
0.1645
0.162152
0.159741
0.157275
0.154763
0.152212
0.149629
0.147022
0.144397
0.141762
0.139121
0.13648
0.133845
0.131221
0.128612
0.126021
0.123454
0.120912
0.1184
0.11592
0.113474
0.111063
0.108691
0.106359
0.104067
0.101817
0.0996104
0.0974469
0.0953275
0.0932524
0.091222
0.0892364
0.0872956
0.0853995
0.083548
0.0817409
0.0799778
0.0782583
0.0765822
0.0749488
0.0733577
0.0718084
0.0703002
0.0688327
0.0674051
0.0660168
0.0646672
0.0633556
0.0620814
0.0608439
0.0596424
0.0584763
0.0573449
0.0562474
0.0551834
0.054152
0.0531528
0.0521849
0.0512479
0.0503409
0.0494635
0.0486149
0.0477946
0.047002
0.0462364
0.0454971
0.0447836
0.0440952
0.0434314
0.0427914
0.0421747
0.0415806
0.0410085
0.0404579
0.0399282
0.0394187
0.0389288
0.0384584
0.0380069
0.0375737
0.0371583
0.036761
0.0363817
0.0360208
0.0356792
0.035359
0.0350621
0.0347925
0.0345624
0.0342947
0.00600322
0.0195387
0.0260017
0.030262
0.0336013
0.0364513
0.039016
0.041413
0.0437175
0.0459794
0.0482328
0.0505
0.0527958
0.0551287
0.0575039
0.0599237
0.0623889
0.0648991
0.0674535
0.0700507
0.0726891
0.0753669
0.0780818
0.0808316
0.0836138
0.0864257
0.0892646
0.0921274
0.095011
0.097912
0.100827
0.103754
0.106689
0.10963
0.112572
0.115515
0.118454
0.121387
0.124312
0.127227
0.130128
0.133014
0.135883
0.138732
0.141558
0.144359
0.147132
0.149875
0.152584
0.155256
0.157887
0.160473
0.163008
0.165489
0.16791
0.170266
0.17255
0.174757
0.176879
0.17891
0.180843
0.182671
0.184386
0.185981
0.18745
0.188784
0.189978
0.191026
0.19192
0.192658
0.193232
0.193641
0.193879
0.193947
0.193843
0.193565
0.193113
0.192489
0.191697
0.190739
0.189621
0.188346
0.186922
0.185354
0.18365
0.181818
0.179866
0.177803
0.175636
0.173376
0.17103
0.168609
0.166121
0.163574
0.160977
0.158338
0.155665
0.152965
0.150246
0.147513
0.144774
0.142035
0.1393
0.136574
0.133864
0.131172
0.128503
0.12586
0.123247
0.120666
0.11812
0.115611
0.11314
0.110711
0.108323
0.105979
0.103679
0.101423
0.0992136
0.0970497
0.0949322
0.0928611
0.0908364
0.0888582
0.0869264
0.0850405
0.0832005
0.0814059
0.0796563
0.0779511
0.0762901
0.0746724
0.0730977
0.0715652
0.0700744
0.0686245
0.0672149
0.0658449
0.0645139
0.063221
0.0619657
0.0607472
0.0595649
0.058418
0.0573058
0.0562277
0.055183
0.054171
0.053191
0.0522423
0.0513242
0.0504362
0.0495775
0.0487474
0.0479454
0.0471707
0.0464227
0.0457008
0.0450042
0.0443323
0.0436845
0.0430601
0.0424584
0.0418788
0.0413207
0.0407834
0.0402664
0.0397692
0.0392913
0.0388322
0.0383916
0.0379699
0.0375668
0.0371828
0.0368186
0.0364759
0.0361566
0.0358638
0.035605
0.0353227
0.00595832
0.0195291
0.0260212
0.0303437
0.0337584
0.0366905
0.0393378
0.041812
0.0441874
0.0465141
0.0488257
0.0511451
0.0534879
0.0558648
0.0582824
0.0607449
0.0632545
0.065812
0.0684178
0.0710711
0.0737711
0.0765162
0.0793048
0.0821348
0.0850036
0.0879087
0.090847
0.0938153
0.09681
0.0998278
0.102865
0.105919
0.108984
0.112059
0.115139
0.118221
0.121301
0.124377
0.127445
0.130501
0.133544
0.136569
0.139574
0.142557
0.145514
0.148442
0.151338
0.1542
0.157023
0.159803
0.162538
0.165223
0.167852
0.170422
0.172928
0.175363
0.177723
0.180001
0.18219
0.184285
0.186278
0.188162
0.189931
0.191577
0.193094
0.194475
0.195712
0.1968
0.197733
0.198506
0.199114
0.199553
0.19982
0.199912
0.199829
0.199567
0.199127
0.198512
0.197723
0.196765
0.195641
0.194357
0.192918
0.191332
0.189604
0.187743
0.185758
0.183657
0.181448
0.179141
0.176744
0.174268
0.17172
0.169111
0.166448
0.16374
0.160995
0.158221
0.155425
0.152614
0.149795
0.146974
0.144156
0.141346
0.138551
0.135773
0.133018
0.130289
0.12759
0.124923
0.122291
0.119696
0.117141
0.114627
0.112156
0.109729
0.107347
0.105012
0.102722
0.10048
0.0982857
0.0961389
0.0940399
0.0919887
0.0899853
0.0880294
0.0861207
0.0842589
0.0824436
0.0806743
0.0789505
0.0772716
0.0756371
0.0740463
0.0724986
0.0709934
0.0695298
0.0681073
0.066725
0.0653824
0.0640786
0.062813
0.0615848
0.0603933
0.0592379
0.0581177
0.057032
0.0559802
0.0549615
0.0539752
0.0530207
0.0520971
0.0512038
0.0503402
0.0495054
0.0486989
0.0479199
0.0471678
0.0464417
0.0457412
0.0450654
0.0444137
0.0437853
0.0431797
0.0425961
0.042034
0.0414926
0.0409714
0.04047
0.0399879
0.0395247
0.0390805
0.0386553
0.0382494
0.0378637
0.0374998
0.0371589
0.0368437
0.0365585
0.0362591
0.00584191
0.019379
0.0258467
0.0301782
0.0336205
0.0365934
0.0392914
0.0418246
0.0442674
0.0466611
0.0490358
0.051413
0.0538073
0.0562331
0.0586983
0.0612083
0.0637667
0.0663756
0.0690361
0.0717487
0.0745129
0.0773279
0.0801923
0.0831043
0.0860615
0.0890612
0.0921
0.0951747
0.0982817
0.101417
0.104578
0.107759
0.110956
0.114165
0.117383
0.120604
0.123824
0.12704
0.130247
0.133442
0.13662
0.139779
0.142913
0.146021
0.149099
0.152142
0.155147
0.158112
0.161032
0.163903
0.166722
0.169483
0.172184
0.174819
0.177383
0.179871
0.182278
0.184598
0.186826
0.188955
0.190979
0.192891
0.194686
0.196356
0.197895
0.199296
0.200554
0.201661
0.202614
0.203405
0.204032
0.204489
0.204773
0.204882
0.204816
0.204569
0.20414
0.203535
0.202754
0.201801
0.20068
0.199396
0.197954
0.196361
0.194624
0.192749
0.190747
0.188624
0.186391
0.184055
0.181626
0.179114
0.176527
0.173874
0.171165
0.168407
0.16561
0.162781
0.159928
0.157057
0.154176
0.151292
0.148409
0.145533
0.14267
0.139824
0.137
0.134201
0.131431
0.128693
0.12599
0.123324
0.120698
0.118114
0.115572
0.113076
0.110624
0.10822
0.105862
0.103553
0.101292
0.0990801
0.0969167
0.0948023
0.0927366
0.0907195
0.0887508
0.0868302
0.0849573
0.0831316
0.0813525
0.0796197
0.0779324
0.0762901
0.0746921
0.0731378
0.0716263
0.0701571
0.0687295
0.0673425
0.0659957
0.0646881
0.0634191
0.0621879
0.0609938
0.0598361
0.0587139
0.0576266
0.0565734
0.0555535
0.0545663
0.053611
0.0526868
0.0517931
0.0509291
0.0500941
0.0492873
0.0485081
0.0477557
0.0470294
0.0463285
0.0456522
0.0449999
0.0443708
0.0437644
0.0431798
0.0426164
0.0420737
0.0415512
0.0410483
0.0405648
0.0401004
0.0396553
0.0392296
0.038824
0.0384398
0.0380781
0.0377414
0.0374318
0.0371145
0.00563221
0.0190272
0.0254304
0.029763
0.0332353
0.0362564
0.0390134
0.041609
0.0441056
0.0465517
0.0489793
0.0514106
0.0538626
0.0563463
0.0588664
0.0614319
0.0640476
0.0667164
0.0694405
0.0722209
0.0750578
0.0779508
0.0808986
0.0838995
0.0869512
0.090051
0.0931959
0.0963824
0.0996067
0.102865
0.106152
0.109463
0.112794
0.116139
0.119494
0.122853
0.126211
0.129563
0.132905
0.136231
0.139537
0.142818
0.146071
0.14929
0.152472
0.155613
0.158708
0.161754
0.164748
0.167684
0.170559
0.173369
0.17611
0.178777
0.181366
0.183872
0.186292
0.188618
0.190848
0.192974
0.194993
0.196898
0.198683
0.200343
0.201872
0.203264
0.204514
0.205615
0.206562
0.207352
0.207978
0.208438
0.208727
0.208844
0.208787
0.20855
0.208131
0.207536
0.206767
0.205825
0.204715
0.20344
0.202006
0.200418
0.198685
0.196813
0.194809
0.192683
0.190443
0.188097
0.185655
0.183126
0.180519
0.177844
0.175108
0.172322
0.169492
0.166628
0.163738
0.160828
0.157905
0.154976
0.152047
0.149124
0.146211
0.143315
0.140439
0.137587
0.134763
0.13197
0.129212
0.126491
0.123809
0.121168
0.11857
0.116017
0.113509
0.111048
0.108635
0.10627
0.103955
0.101688
0.0994707
0.0973031
0.0951849
0.0931162
0.0910966
0.089126
0.0872039
0.0853298
0.0835035
0.0817242
0.0799915
0.0783047
0.0766632
0.0750663
0.0735134
0.0720036
0.0705363
0.0691108
0.0677263
0.066382
0.0650773
0.0638113
0.0625833
0.0613925
0.0602382
0.0591196
0.058036
0.0569865
0.0559704
0.054987
0.0540355
0.0531152
0.0522252
0.0513649
0.0505335
0.0497302
0.0489543
0.048205
0.0474816
0.0467834
0.0461095
0.0454594
0.0448323
0.0442275
0.0436443
0.0430822
0.0425405
0.0420189
0.0415168
0.0410342
0.040571
0.0401273
0.0397036
0.0393009
0.0389202
0.0385633
0.038231
0.0378958
0.00535949
0.0184962
0.0248228
0.0291461
0.0326383
0.0356974
0.0385053
0.0411627
0.0437321
0.0462542
0.0487581
0.0512642
0.0537857
0.0563361
0.0589226
0.0615577
0.064246
0.0669912
0.0697954
0.0726598
0.0755851
0.0785709
0.0816164
0.0847201
0.0878797
0.0910925
0.0943554
0.0976645
0.101016
0.104404
0.107824
0.11127
0.114737
0.118219
0.12171
0.125203
0.128693
0.132174
0.13564
0.139086
0.142505
0.145892
0.149243
0.152552
0.155814
0.159026
0.162182
0.165279
0.168313
0.171279
0.174174
0.176994
0.179735
0.182393
0.184965
0.187446
0.189834
0.192123
0.19431
0.19639
0.19836
0.200215
0.20195
0.203561
0.205043
0.20639
0.207598
0.208662
0.209578
0.210341
0.210946
0.21139
0.21167
0.211781
0.211726
0.211493
0.211081
0.210497
0.20974
0.208814
0.207721
0.206465
0.205049
0.20348
0.201764
0.199909
0.197921
0.195809
0.19358
0.191244
0.188809
0.186283
0.183677
0.180999
0.178258
0.175463
0.172623
0.169745
0.166837
0.163908
0.160964
0.158011
0.155056
0.152104
0.149162
0.146233
0.143323
0.140436
0.137576
0.134746
0.131949
0.129188
0.126465
0.123783
0.121143
0.118547
0.115997
0.113493
0.111037
0.108629
0.106271
0.103961
0.101701
0.099491
0.0973308
0.0952203
0.0931595
0.091148
0.0891856
0.0872719
0.0854065
0.0835888
0.0818182
0.0800943
0.0784164
0.0767838
0.0751959
0.0736518
0.072151
0.0706928
0.0692762
0.0679007
0.0665654
0.0652696
0.0640125
0.0627934
0.0616114
0.0604658
0.0593558
0.0582807
0.0572396
0.0562317
0.0552564
0.0543128
0.0534001
0.0525176
0.0516645
0.0508399
0.0500432
0.0492736
0.0485303
0.0478125
0.0471195
0.0464506
0.0458049
0.0451819
0.0445809
0.0440012
0.0434422
0.0429035
0.0423846
0.0418853
0.0414055
0.0409453
0.040505
0.0400854
0.0396872
0.0393118
0.0389593
0.0386073
0.00506311
0.0178306
0.0241062
0.0284288
0.0319471
0.0350501
0.0379156
0.040641
0.0432864
0.0458916
0.0484841
0.051084
0.053705
0.0563549
0.0590382
0.06177
0.064557
0.067404
0.0703145
0.0732901
0.076331
0.0794367
0.0826061
0.0858374
0.0891282
0.0924754
0.0958754
0.0993235
0.102815
0.106343
0.109904
0.113489
0.117093
0.120709
0.12433
0.127948
0.131558
0.135151
0.138722
0.142264
0.14577
0.149234
0.152651
0.156016
0.159322
0.162565
0.165741
0.168845
0.171874
0.174823
0.177689
0.180468