/*--------------------------------*- C++ -*----------------------------------*\
  =========                 |
  \\      /  F ield         | OpenFOAM: The Open Source CFD Toolbox
   \\    /   O peration     | Website:  https://openfoam.org
    \\  /    A nd           | Version:  7
     \\/     M anipulation  |
\*---------------------------------------------------------------------------*/
FoamFile
{
    version     2.0;
    format      ascii;
    class       volScalarField;
    location    "100";
    object      nut;
}
// * * * * * * * * * * * * * * * * * * * * * * * * * * * * * * * * * * * * * //

dimensions      [0 2 -1 0 0 0 0];

internalField   nonuniform List<scalar> 
12225
(
2.66869e-05
1.33563e-05
1.14697e-05
1.06182e-05
1.00228e-05
9.527e-06
9.09357e-06
8.70832e-06
8.36298e-06
8.05196e-06
7.771e-06
7.51677e-06
7.28663e-06
7.07872e-06
6.89243e-06
6.72961e-06
6.58855e-06
6.58511e-06
0.000154686
0.0001167
0.000110638
0.000106658
0.000103542
0.000100801
9.83148e-05
9.60343e-05
9.39315e-05
9.1988e-05
9.01896e-05
8.85254e-05
8.69877e-05
8.55717e-05
8.42892e-05
8.31155e-05
8.23648e-05
8.13961e-05
0.000330884
0.000254482
0.00023861
0.000230169
0.000223857
0.000218354
0.000213328
0.000208664
0.000204312
0.000200242
0.000196432
0.000192871
0.000189548
0.000186461
0.00018364
0.000181069
0.000179289
0.000177043
0.000496384
0.000391468
0.000363049
0.000349788
0.000340463
0.00033257
0.000325441
0.000318839
0.000312669
0.000306878
0.000301437
0.000296329
0.000291544
0.000287078
0.000282964
0.000279218
0.000276317
0.000273344
0.000628828
0.000515815
0.000479264
0.000460359
0.000448431
0.000438572
0.000429787
0.000421699
0.000414143
0.000407045
0.000400365
0.000394079
0.000388173
0.000382642
0.000377514
0.000372823
0.000368908
0.000365231
0.000725428
0.000622346
0.000583628
0.000560821
0.000546494
0.000535092
0.000525059
0.000515874
0.000507311
0.000499267
0.000491685
0.000484535
0.000477801
0.000471476
0.000465578
0.000460151
0.000455408
0.00045104
0.000790596
0.000709491
0.000673204
0.000650757
0.000633987
0.00062166
0.000610814
0.000600907
0.000591678
0.000583
0.000574808
0.000567069
0.000559762
0.000552878
0.00054643
0.00054046
0.000535092
0.000530126
0.00083078
0.000777993
0.00074632
0.000728533
0.00071066
0.000697926
0.000686771
0.00067655
0.000667
0.000657992
0.000649464
0.000641386
0.000633739
0.000626513
0.000619718
0.000613389
0.000607596
0.000602184
0.000853128
0.000827464
0.000804938
0.000790825
0.000776502
0.000763402
0.000752604
0.000742547
0.000733056
0.000724039
0.000715453
0.000707291
0.000699534
0.000692178
0.000685233
0.00067873
0.000672705
0.000667021
0.000863397
0.000860081
0.000848906
0.000838112
0.000829516
0.000817633
0.000807908
0.000798557
0.000789559
0.00078089
0.000772551
0.000764577
0.000756954
0.000749689
0.000742798
0.000736312
0.000730246
0.000724476
0.00086602
0.000878392
0.000878162
0.000873143
0.000868531
0.000860049
0.000851702
0.000843823
0.000835941
0.000828132
0.000820463
0.000812989
0.000805768
0.000798834
0.000792216
0.00078595
0.000780042
0.000774377
0.000864418
0.000885129
0.000892457
0.000893434
0.000892221
0.000887904
0.000881666
0.000875484
0.000868868
0.000862123
0.000855406
0.000848752
0.000842229
0.000835893
0.000829791
0.000823936
0.000818366
0.000812981
0.000862642
0.000884237
0.000897664
0.000904117
0.000906358
0.000905521
0.000902916
0.000898759
0.000893828
0.000888436
0.000882797
0.000877063
0.00087134
0.000865706
0.000860224
0.000854973
0.000849957
0.00084505
0.000861202
0.000877722
0.000894012
0.000905345
0.00091084
0.000913763
0.000915629
0.000914131
0.000911513
0.000908112
0.000904192
0.000899953
0.000895541
0.000891066
0.000886611
0.000882231
0.000877971
0.000873727
0.000857335
0.00087008
0.000884193
0.000895855
0.000904365
0.000911174
0.000915892
0.000917735
0.000918065
0.000917285
0.000915701
0.000913548
0.000911007
0.000908212
0.00090527
0.000902257
0.000899236
0.00089611
0.00085436
0.000861264
0.000870399
0.000880024
0.000888823
0.00089655
0.00090294
0.000907661
0.000910946
0.000913068
0.000914253
0.0009147
0.000914572
0.000914005
0.000913107
0.000911967
0.000910661
0.000909109
0.000852302
0.000854207
0.000858013
0.000863286
0.000869323
0.000875617
0.000881803
0.00088754
0.000892648
0.000897038
0.00090072
0.000903743
0.000906171
0.000908074
0.00090952
0.000910577
0.000911312
0.00091166
0.000851229
0.000850445
0.000851055
0.000853077
0.000856298
0.000860447
0.000865241
0.000870383
0.000875612
0.000880716
0.000885546
0.000890005
0.000894036
0.000897618
0.000900752
0.000903456
0.000905762
0.000907694
0.000851524
0.000851382
0.0008527
0.000855405
0.000859199
0.000863769
0.000868807
0.000874016
0.000879155
0.000884052
0.000888595
0.000892717
0.000896388
0.000899605
0.00090238
0.000904737
0.000906697
0.000908333
0.000853597
0.000858517
0.00086565
0.000873659
0.000881614
0.000889038
0.000895568
0.000900897
0.000905063
0.000908187
0.000910415
0.000911893
0.000912755
0.000913116
0.000913073
0.000912704
0.000912072
0.00091131
0.000857228
0.000869148
0.00088336
0.00089457
0.00090337
0.000910419
0.000915222
0.000917343
0.000917943
0.000917405
0.000916029
0.000914051
0.000911652
0.000908967
0.000906097
0.000903118
0.000900087
0.000897117
0.000862716
0.000878543
0.000896193
0.000905235
0.000909738
0.000910796
0.000910509
0.000907714
0.000903959
0.000899578
0.000894784
0.000889774
0.000884683
0.000879598
0.000874577
0.00086966
0.000864884
0.000860332
0.000864646
0.000882955
0.000888698
0.000887939
0.000885871
0.000880588
0.000873106
0.000866307
0.000859236
0.000852112
0.000845192
0.00083845
0.000831878
0.000825491
0.00081931
0.000813348
0.000807625
0.000802193
0.000862599
0.000858972
0.000847772
0.00083619
0.000827754
0.000815882
0.000806361
0.000797325
0.000788615
0.000780197
0.000772002
0.000764073
0.000756452
0.00074916
0.000742199
0.000735564
0.000729258
0.000723321
0.000840178
0.000798203
0.0007696
0.00075375
0.000736733
0.000723763
0.000712674
0.000702442
0.000692863
0.00068382
0.000675221
0.000667069
0.000659343
0.000652011
0.000645046
0.000638435
0.000632174
0.000626314
0.000780031
0.000694808
0.000658715
0.000635234
0.000618303
0.000605937
0.000595214
0.000585437
0.00057633
0.000567779
0.000559703
0.000552072
0.000544859
0.000538036
0.000531585
0.000525481
0.00051971
0.000514339
0.000661795
0.000551314
0.000513473
0.000491452
0.0004787
0.000468307
0.000459156
0.000450787
0.000443002
0.000435692
0.000428799
0.000422292
0.00041615
0.000410351
0.000404877
0.000399704
0.000394821
0.00039031
0.000476675
0.000372809
0.000345029
0.000332032
0.000323136
0.000315658
0.000308911
0.000302674
0.000296854
0.000291397
0.000286268
0.000281444
0.000276907
0.000272638
0.000268623
0.000264838
0.000261273
0.000258012
0.000245014
0.000182903
0.000171341
0.000164932
0.000160122
0.000155945
0.000152143
0.00014864
0.000145399
0.000142391
0.000139594
0.000136991
0.000134565
0.000132303
0.000130193
0.000128219
0.000126369
0.000124701
5.50642e-05
3.28705e-05
2.8252e-05
2.60907e-05
2.46023e-05
2.33842e-05
2.23172e-05
2.13612e-05
2.04967e-05
1.97111e-05
1.89948e-05
1.834e-05
1.77402e-05
1.71901e-05
1.6684e-05
1.62201e-05
1.57861e-05
1.53998e-05
3.30902e-08
1.03199e-06
1.98653e-06
2.75943e-06
3.39036e-06
4.04629e-06
4.73605e-06
5.51137e-06
6.41971e-06
7.4936e-06
8.75029e-06
1.01961e-05
1.1821e-05
1.36019e-05
1.5506e-05
1.7506e-05
1.95763e-05
2.16995e-05
2.38578e-05
2.6042e-05
2.8243e-05
3.04601e-05
3.26677e-05
3.48566e-05
3.70223e-05
3.91655e-05
4.12826e-05
4.3376e-05
4.54424e-05
4.74849e-05
4.95007e-05
5.14933e-05
5.34592e-05
5.54022e-05
5.73188e-05
5.92125e-05
6.10791e-05
6.29222e-05
6.47369e-05
6.65266e-05
6.8286e-05
7.0018e-05
7.1717e-05
7.33855e-05
7.50175e-05
7.66156e-05
7.81733e-05
7.96936e-05
8.11712e-05
8.26109e-05
8.40113e-05
8.53686e-05
8.66721e-05
8.79248e-05
8.91198e-05
9.02584e-05
9.13333e-05
9.23454e-05
9.32876e-05
9.41607e-05
9.49579e-05
9.56797e-05
9.63201e-05
9.68795e-05
9.73524e-05
9.77389e-05
9.8033e-05
9.82317e-05
9.83643e-05
9.83908e-05
9.82638e-05
9.81146e-05
9.78544e-05
9.74999e-05
9.70513e-05
9.65083e-05
9.58732e-05
9.51478e-05
9.43359e-05
9.34392e-05
9.24634e-05
9.14099e-05
9.02856e-05
8.90915e-05
8.78362e-05
8.65207e-05
8.51537e-05
8.37365e-05
8.22763e-05
8.07757e-05
7.92384e-05
7.76708e-05
7.60781e-05
7.44648e-05
7.28378e-05
7.12007e-05
6.9553e-05
6.78992e-05
6.62435e-05
6.45901e-05
6.29426e-05
6.13043e-05
5.96785e-05
5.80681e-05
5.64762e-05
5.49048e-05
5.33565e-05
5.18324e-05
5.03346e-05
4.88641e-05
4.74218e-05
4.59935e-05
4.45912e-05
4.32187e-05
4.18793e-05
4.05733e-05
3.93021e-05
3.80653e-05
3.68647e-05
3.57018e-05
3.45714e-05
3.34702e-05
3.24e-05
3.13616e-05
3.03564e-05
2.93837e-05
2.84444e-05
2.75379e-05
2.66645e-05
2.58227e-05
2.50122e-05
2.4232e-05
2.348e-05
2.27545e-05
2.20555e-05
2.13825e-05
2.07354e-05
2.01134e-05
1.95164e-05
1.89436e-05
1.83941e-05
1.78668e-05
1.73608e-05
1.68753e-05
1.64097e-05
1.59634e-05
1.55359e-05
1.51266e-05
1.47349e-05
1.436e-05
1.40013e-05
1.36581e-05
1.33299e-05
1.30164e-05
1.27173e-05
1.24316e-05
1.21585e-05
1.18974e-05
1.1648e-05
1.14097e-05
1.11819e-05
1.09643e-05
1.07561e-05
1.05569e-05
1.03663e-05
1.01835e-05
1.00084e-05
9.83958e-06
9.67842e-06
9.52083e-06
9.37008e-06
9.21853e-06
9.08605e-06
8.94352e-06
8.81218e-06
8.68481e-06
8.53896e-06
8.40985e-06
8.23705e-06
7.5728e-06
1.93322e-07
1.03825e-05
2.69106e-05
3.80633e-05
4.42132e-05
4.74215e-05
4.95534e-05
5.15382e-05
5.37229e-05
5.61888e-05
5.89642e-05
6.20988e-05
6.56804e-05
6.96677e-05
7.39527e-05
7.8466e-05
8.31815e-05
8.81214e-05
9.32562e-05
9.85532e-05
0.000103982
0.000109515
0.000115131
0.000120806
0.000126518
0.000132249
0.000137985
0.00014371
0.000149414
0.000155088
0.000160725
0.000166318
0.000171865
0.000177363
0.000182809
0.000188203
0.000193546
0.000198836
0.000204073
0.000209258
0.00021439
0.000219468
0.000224488
0.000229449
0.000234344
0.000239165
0.0002439
0.000248531
0.000253029
0.000257352
0.000261425
0.000265342
0.000269155
0.000272863
0.000276461
0.000279941
0.000283297
0.000286518
0.000289595
0.000292521
0.000295284
0.000297877
0.000300289
0.000302513
0.00030454
0.000306363
0.000307978
0.000309384
0.000310599
0.000311531
0.000312187
0.000312573
0.000312818
0.000312811
0.000312562
0.000312075
0.000311353
0.000310401
0.000309221
0.00030782
0.000306205
0.000304384
0.000302363
0.000300154
0.000297763
0.000295204
0.000292484
0.000289617
0.000286612
0.000283483
0.000280239
0.000276891
0.000273447
0.000269919
0.000266321
0.000262662
0.000258944
0.000255178
0.000251376
0.000247548
0.000243702
0.000239849
0.000235994
0.000232147
0.000228313
0.000224498
0.000220709
0.000216951
0.000213227
0.000209541
0.00020591
0.000202331
0.000198805
0.000195331
0.000191912
0.000188548
0.00018524
0.000181988
0.000178831
0.000175745
0.00017269
0.000169668
0.000166698
0.000163787
0.000160936
0.000158147
0.000155424
0.000152771
0.000150184
0.000147661
0.000145197
0.000142787
0.00014042
0.0001381
0.000135834
0.000133623
0.000131469
0.00012937
0.000127323
0.000125331
0.00012339
0.000121496
0.00011965
0.000117851
0.000116099
0.000114395
0.000112739
0.00011113
0.000109566
0.000108045
0.000106568
0.000105133
0.000103741
0.000102389
0.000101065
9.97759e-05
9.85237e-05
9.73097e-05
9.61334e-05
9.49939e-05
9.38898e-05
9.28197e-05
9.1782e-05
9.07749e-05
8.9796e-05
8.88438e-05
8.79151e-05
8.70059e-05
8.61197e-05
8.52333e-05
8.43866e-05
8.34593e-05
8.28435e-05
8.19597e-05
8.10754e-05
8.00233e-05
7.88311e-05
7.73874e-05
7.60206e-05
6.90078e-05
4.63376e-07
2.01709e-05
4.85347e-05
6.9635e-05
8.39006e-05
9.33124e-05
9.97606e-05
0.000104748
0.000109291
0.000113967
0.000119051
0.000124626
0.000130634
0.000137091
0.000144059
0.000151561
0.00015952
0.000167837
0.000176449
0.000185298
0.000194333
0.000203509
0.000212782
0.000222112
0.000231463
0.000240807
0.000250116
0.000259372
0.000268556
0.000277658
0.000286666
0.000295574
0.000304379
0.000313078
0.000321669
0.000330153
0.000338531
0.000346803
0.000354969
0.000363031
0.000370988
0.000378838
0.000386579
0.000394206
0.000401713
0.000409089
0.000416322
0.000423397
0.000430298
0.000437007
0.000443516
0.000449854
0.000456035
0.000462056
0.000467908
0.00047358
0.000479061
0.000484337
0.000489396
0.000494224
0.000498808
0.000503133
0.000507186
0.000510955
0.000514428
0.000517593
0.00052044
0.000522961
0.000525156
0.00052705
0.000528519
0.000529485
0.000530253
0.000530648
0.000530673
0.000530333
0.000529631
0.000528571
0.000527159
0.000525403
0.00052331
0.000520892
0.000518159
0.000515124
0.0005118
0.000508202
0.000504343
0.000500241
0.000495911
0.00049137
0.000486635
0.000481719
0.000476638
0.000471404
0.000466038
0.000460552
0.000454961
0.000449279
0.000443522
0.000437703
0.000431837
0.000425937
0.000420015
0.000414083
0.000408151
0.000402229
0.000396326
0.000390449
0.000384607
0.000378806
0.00037306
0.000367375
0.000361756
0.000356203
0.000350719
0.000345306
0.000339967
0.000334701
0.000329528
0.000324444
0.00031944
0.000314508
0.000309655
0.000304883
0.000300194
0.000295587
0.000291085
0.000286701
0.000282413
0.000278211
0.000274089
0.000270034
0.000266007
0.000262044
0.000258162
0.000254362
0.000250643
0.000247001
0.000243435
0.000239947
0.00023653
0.000233173
0.00022988
0.000226652
0.000223494
0.000220406
0.000217388
0.000214437
0.000211551
0.000208729
0.000205971
0.000203277
0.000200647
0.000198081
0.000195572
0.000193119
0.000190723
0.000188384
0.000186104
0.000183881
0.000181713
0.000179601
0.000177541
0.000175531
0.000173569
0.000171652
0.000169776
0.000167935
0.000166132
0.00016434
0.000162597
0.000160789
0.000159173
0.000157408
0.000155912
0.000153861
0.000151852
0.000149507
0.000147342
0.000137362
7.91249e-07
2.77985e-05
6.53111e-05
9.40424e-05
0.000114428
0.000128871
0.00013956
0.000148174
0.000155899
0.000163487
0.000171359
0.000179717
0.000188631
0.000198125
0.000208192
0.000218793
0.000229856
0.0002413
0.000253051
0.000265039
0.0002772
0.000289478
0.000301818
0.000314176
0.000326511
0.00033879
0.000350985
0.000363073
0.000375038
0.000386867
0.000398548
0.000410077
0.000421449
0.000432661
0.000443714
0.000454607
0.000465341
0.000475918
0.000486338
0.000496602
0.00050671
0.000516661
0.000526455
0.000536086
0.000545549
0.000554837
0.000563941
0.000572851
0.000581558
0.000590052
0.000598338
0.000606422
0.000614305
0.000621981
0.000629439
0.000636668
0.000643654
0.000650382
0.000656837
0.000663004
0.000668868
0.000674412
0.000679621
0.00068448
0.000688975
0.00069309
0.000696814
0.000700133
0.000703038
0.00070559
0.000707698
0.000709125
0.000710285
0.000710994
0.00071125
0.000711053
0.000710404
0.00070931
0.000707775
0.000705807
0.000703417
0.000700615
0.000697415
0.000693829
0.000689875
0.000685568
0.000680926
0.000675968
0.000670713
0.00066518
0.000659388
0.000653356
0.000647104
0.000640648
0.00063401
0.000627206
0.000620256
0.000613178
0.00060599
0.00059871
0.000591355
0.000583941
0.000576485
0.000568999
0.000561498
0.000553995
0.0005465
0.000539024
0.000531578
0.00052417
0.000516813
0.000509516
0.000502286
0.000495128
0.000488045
0.000481043
0.000474123
0.000467291
0.000460554
0.000453918
0.000447378
0.000440934
0.000434587
0.000428339
0.000422192
0.000416147
0.000410214
0.000404401
0.000398705
0.000393118
0.000387637
0.000382253
0.000376952
0.000371759
0.000366689
0.000361725
0.000356862
0.000352095
0.000347421
0.000342851
0.000338365
0.000333942
0.000329597
0.000325337
0.000321166
0.000317085
0.000313092
0.000309181
0.000305346
0.000301591
0.000297915
0.000294321
0.000290808
0.000287373
0.000284014
0.000280727
0.000277512
0.00027437
0.000271299
0.000268299
0.000265368
0.000262504
0.000259706
0.000256969
0.000254291
0.000251669
0.000249097
0.000246569
0.000244084
0.00024162
0.000239197
0.000236742
0.000234386
0.000231918
0.000229599
0.000226959
0.000224497
0.000221553
0.000218746
0.000208118
1.10911e-06
3.39046e-05
7.89567e-05
0.000114245
0.000140499
0.000159933
0.000174902
0.000187217
0.000198194
0.000208721
0.000219345
0.000230366
0.000241925
0.000254065
0.000266774
0.000279967
0.000293611
0.000307613
0.000321892
0.000336373
0.000350989
0.000365677
0.000380384
0.000395061
0.000409667
0.000424169
0.000438539
0.000452754
0.000466796
0.000480652
0.000494312
0.00050777
0.000521021
0.000534063
0.000546898
0.000559525
0.000571944
0.000584158
0.000596167
0.000607972
0.000619576
0.000630976
0.000642179
0.000653182
0.00066398
0.000674569
0.000684943
0.000695097
0.00070502
0.000714715
0.000724187
0.000733435
0.000742455
0.00075124
0.000759779
0.00076806
0.000776068
0.000783789
0.000791207
0.000798306
0.000805068
0.000811476
0.000817514
0.000823164
0.000828409
0.000833234
0.000837623
0.000841561
0.000845034
0.000848085
0.000850727
0.000852599
0.000854083
0.000855098
0.000855599
0.000855586
0.00085506
0.000854023
0.000852482
0.000850444
0.000847919
0.000844919
0.000841456
0.000837546
0.000833207
0.000828455
0.00082331
0.000817792
0.000811923
0.000805725
0.000799218
0.000792426
0.000785369
0.00077807
0.000770549
0.000762828
0.000754928
0.00074687
0.000738675
0.000730362
0.000721952
0.000713463
0.000704913
0.000696317
0.000687693
0.000679054
0.000670413
0.000661785
0.00065318
0.000644609
0.000636085
0.000627617
0.000619214
0.000610884
0.000602633
0.000594466
0.000586388
0.000578404
0.000570522
0.000562747
0.000555096
0.000547551
0.000540113
0.000532786
0.000525572
0.000518472
0.000511493
0.00050464
0.000497913
0.000491311
0.000484831
0.00047847
0.00047222
0.000466089
0.000460086
0.000454209
0.000448453
0.000442816
0.000437293
0.000431922
0.000426672
0.000421524
0.000416475
0.000411533
0.000406701
0.000401976
0.000397352
0.000392819
0.000388368
0.000384009
0.000379745
0.000375576
0.000371501
0.000367515
0.000363615
0.000359801
0.000356073
0.000352428
0.000348864
0.000345381
0.000341976
0.000338648
0.000335391
0.000332204
0.000329083
0.000326023
0.000323018
0.000320061
0.000317148
0.000314263
0.00031141
0.000308543
0.000305722
0.000302822
0.000299974
0.000296883
0.000294148
0.000290734
0.000287601
0.000277495
1.38137e-06
3.84766e-05
8.95472e-05
0.000130586
0.000162257
0.000186585
0.000205852
0.00022193
0.000236208
0.000249664
0.000262941
0.000276425
0.000290314
0.0003047
0.000319506
0.000334872
0.000350592
0.000366608
0.000382847
0.000399239
0.000415717
0.000432218
0.000448689
0.000465084
0.00048136
0.000497486
0.000513433
0.000529177
0.000544702
0.000559993
0.000575042
0.000589842
0.000604389
0.000618674
0.000632712
0.0006465
0.000660037
0.000673323
0.000686362
0.000699159
0.000711717
0.000724045
0.000736141
0.000747999
0.000759618
0.000770998
0.000782139
0.00079304
0.000803703
0.000814128
0.000824317
0.000834266
0.000843971
0.000853423
0.000862613
0.000871529
0.000880159
0.000888488
0.0008965
0.00090418
0.000911511
0.000918474
0.000925054
0.000931231
0.000936987
0.000942307
0.000947172
0.000951567
0.000955476
0.000958904
0.00096195
0.000964238
0.000966033
0.000967349
0.000968118
0.000968338
0.000968006
0.000967126
0.0009657
0.000963737
0.000961244
0.000958232
0.000954715
0.000950708
0.000946228
0.000941292
0.000935921
0.000930136
0.000923958
0.000917412
0.00091052
0.000903306
0.000895793
0.000888005
0.000879964
0.000871695
0.00086322
0.000854561
0.000845741
0.000836782
0.000827704
0.000818528
0.000809273
0.000799957
0.000790597
0.000781209
0.00077181
0.000762411
0.000753028
0.000743672
0.000734355
0.000725089
0.000715883
0.000706746
0.000697686
0.00068871
0.000679823
0.000671033
0.000662345
0.000653767
0.000645311
0.000636961
0.000628725
0.000620607
0.000612612
0.000604741
0.000596999
0.000589388
0.000581913
0.000574572
0.000567367
0.000560294
0.000553352
0.000546543
0.00053987
0.000533336
0.000526938
0.000520682
0.000514561
0.000508586
0.000502751
0.000497044
0.000491461
0.000486019
0.000480722
0.000475553
0.000470504
0.000465576
0.000460759
0.000456051
0.000451451
0.00044696
0.000442573
0.00043828
0.000434082
0.000429979
0.000425972
0.000422057
0.000418231
0.000414494
0.000410843
0.000407273
0.000403782
0.000400365
0.000397019
0.000393738
0.000390514
0.000387341
0.000384212
0.000381114
0.000378041
0.000374964
0.000371904
0.000368787
0.000365662
0.000362358
0.000359135
0.000355744
0.000352303
0.000343048
1.59205e-06
4.16976e-05
9.73504e-05
0.00014347
0.00017984
0.00020877
0.00023221
0.000252006
0.000269561
0.000285898
0.000301718
0.000317495
0.000333399
0.000349641
0.000366391
0.000383464
0.000400811
0.00041838
0.000436108
0.00045393
0.000471781
0.000489605
0.000507349
0.000524968
0.000542423
0.00055968
0.000576712
0.000593497
0.000610016
0.000626254
0.000642197
0.000657862
0.000673246
0.000688359
0.000703192
0.000717726
0.000731958
0.000745887
0.000759517
0.000772859
0.000785919
0.000798702
0.000811216
0.00082347
0.000835469
0.000847218
0.00085872
0.00086998
0.000881
0.000891778
0.000902314
0.000912605
0.000922647
0.000932433
0.000941956
0.000951205
0.000960169
0.000968836
0.000977191
0.000985218
0.000992902
0.00100022
0.00100717
0.00101372
0.00101985
0.00102555
0.00103079
0.00103557
0.00103986
0.00104365
0.00104702
0.00104975
0.0010519
0.00105355
0.00105465
0.00105517
0.00105513
0.00105451
0.00105332
0.00105157
0.00104925
0.00104639
0.00104299
0.00103907
0.00103464
0.00102972
0.00102434
0.0010185
0.00101224
0.00100558
0.000998547
0.000991158
0.000983441
0.000975421
0.000967123
0.00095857
0.000949788
0.0009408
0.00093163
0.000922301
0.000912834
0.000903251
0.000893572
0.000883818
0.000874005
0.000864153
0.000854276
0.000844391
0.000834511
0.00082465
0.000814821
0.000805035
0.000795304
0.000785636
0.000776041
0.000766527
0.000757101
0.00074777
0.00073854
0.00072942
0.000720414
0.000711523
0.000702751
0.000694102
0.000685579
0.000677186
0.000668925
0.000660802
0.000652818
0.000644975
0.000637274
0.000629715
0.000622299
0.000615025
0.000607896
0.000600914
0.00059408
0.000587399
0.00058086
0.000574472
0.000568233
0.000562141
0.000556191
0.000550389
0.000544739
0.000539235
0.000533871
0.00052867
0.000523616
0.000518692
0.000513899
0.000509235
0.000504692
0.000500263
0.000495945
0.000491733
0.000487624
0.000483615
0.000479701
0.00047588
0.000472151
0.000468508
0.000464947
0.000461466
0.000458059
0.00045472
0.00045144
0.000448212
0.000445029
0.000441877
0.000438748
0.000435619
0.000432493
0.000429321
0.000426112
0.000422765
0.000419376
0.000415794
0.000412367
0.000403765
1.73854e-06
4.37852e-05
0.00010273
0.000152997
0.000193491
0.000226589
0.000253937
0.000277286
0.000298008
0.000317141
0.000335338
0.000353135
0.000371003
0.000389078
0.000407326
0.00042577
0.000444389
0.000463143
0.000481978
0.000500838
0.000519667
0.000538412
0.000557024
0.000575462
0.000593687
0.00061167
0.000629383
0.000646806
0.000663921
0.000680716
0.000697222
0.000713431
0.000729292
0.000744792
0.000759942
0.000774752
0.000789231
0.000803386
0.000817228
0.000830759
0.000843988
0.000856922
0.000869571
0.000881945
0.00089405
0.000905896
0.000917488
0.000928832
0.000939933
0.000950793
0.000961413
0.000971793
0.00098193
0.000991821
0.00100146
0.00101084
0.00101995
0.00102878
0.00103731
0.00104554
0.00105344
0.00106101
0.00106822
0.00107505
0.00108149
0.00108751
0.0010931
0.00109824
0.0011029
0.00110708
0.00111081
0.00111397
0.00111653
0.00111859
0.00112009
0.00112101
0.00112135
0.0011211
0.00112026
0.00111884
0.00111684
0.00111427
0.00111114
0.00110746
0.00110324
0.00109851
0.00109328
0.00108758
0.00108142
0.00107483
0.00106784
0.00106047
0.00105274
0.00104468
0.00103632
0.00102769
0.0010188
0.00100969
0.00100037
0.000990873
0.000981223
0.000971439
0.000961544
0.000951558
0.000941501
0.000931391
0.000921245
0.000911079
0.00090091
0.000890751
0.000880615
0.000870514
0.000860462
0.000850467
0.00084054
0.00083069
0.000820925
0.000811251
0.000801677
0.000792209
0.000782853
0.000773614
0.000764495
0.000755501
0.000746635
0.000737902
0.000729304
0.000720846
0.00071253
0.00070436
0.000696336
0.000688461
0.000680735
0.000673159
0.000665735
0.000658465
0.00065135
0.000644393
0.000637591
0.000630946
0.000624461
0.000618132
0.000611959
0.000605943
0.000600087
0.000594388
0.000588845
0.000583467
0.000578244
0.00057317
0.000568257
0.000563502
0.000558888
0.000554412
0.00055007
0.000545853
0.000541755
0.00053777
0.000533891
0.000530113
0.00052643
0.000522837
0.000519328
0.000515903
0.000512555
0.000509276
0.000506056
0.000502891
0.000499772
0.000496685
0.000493618
0.000490555
0.000487487
0.000484383
0.000481229
0.000477962
0.000474605
0.00047103
0.000467803
0.000459699
1.82543e-06
4.49371e-05
0.000106015
0.00015949
0.000203574
0.000240241
0.000271182
0.000297829
0.000321419
0.000343039
0.000363572
0.000383571
0.000403249
0.000422794
0.000442327
0.000461899
0.000481517
0.000501161
0.000520794
0.000540372
0.000559848
0.000579176
0.000598315
0.000617226
0.000635875
0.000654236
0.000672286
0.000690008
0.000707384
0.000724456
0.000741169
0.000757488
0.000773426
0.000788989
0.000804179
0.000819004
0.000833472
0.000847593
0.000861378
0.000874835
0.000887975
0.000900809
0.000913349
0.000925606
0.00093759
0.000949313
0.000960782
0.000972007
0.000982994
0.000993748
0.00100427
0.00101457
0.00102465
0.00103449
0.00104411
0.00105349
0.00106262
0.0010715
0.00108012
0.00108846
0.00109652
0.00110426
0.00111168
0.00111876
0.00112548
0.00113182
0.00113775
0.00114326
0.00114832
0.00115291
0.00115706
0.00116068
0.00116373
0.00116628
0.00116827
0.00116968
0.0011705
0.00117073
0.00117036
0.0011694
0.00116783
0.00116568
0.00116295
0.00115965
0.00115579
0.00115139
0.00114646
0.00114104
0.00113513
0.00112876
0.00112197
0.00111476
0.00110718
0.00109924
0.00109097
0.00108241
0.00107357
0.00106448
0.00105517
0.00104566
0.00103598
0.00102615
0.00101619
0.00100613
0.000995982
0.000985768
0.000975506
0.000965213
0.000954907
0.000944601
0.00093431
0.000924047
0.000913824
0.000903653
0.000893544
0.000883507
0.00087355
0.000863682
0.00085391
0.000844241
0.000834681
0.000825238
0.000815914
0.000806715
0.000797646
0.00078871
0.000779911
0.000771253
0.00076274
0.000754375
0.000746159
0.000738096
0.000730187
0.000722433
0.000714837
0.0007074
0.000700124
0.000693011
0.000686061
0.000679276
0.000672656
0.000666202
0.000659913
0.00065379
0.000647834
0.000642045
0.000636423
0.000630969
0.000625683
0.000620559
0.000615602
0.00061081
0.000606175
0.00060171
0.000597402
0.000593237
0.00058921
0.000585312
0.000581536
0.000577874
0.00057432
0.000570866
0.000567501
0.000564221
0.000561017
0.000557882
0.000554803
0.000551784
0.000548812
0.000545871
0.000542949
0.000540034
0.000537115
0.000534162
0.000531158
0.000528058
0.000524856
0.000521437
0.000518271
0.000511107
1.85955e-06
4.5339e-05
0.000107565
0.000163388
0.000210442
0.000250094
0.00028395
0.000313417
0.000339834
0.000364147
0.000386978
0.000408818
0.000430043
0.000450897
0.000471529
0.000492023
0.000512411
0.000532697
0.000552863
0.000572879
0.000592713
0.000612327
0.000631689
0.000650765
0.000669529
0.000687959
0.000706033
0.000723761
0.000741166
0.000758183
0.000774769
0.000790943
0.000806711
0.000822081
0.000837058
0.000851654
0.000865879
0.000879745
0.000893262
0.000906445
0.000919307
0.00093186
0.000944118
0.000956094
0.000967803
0.000979255
0.000990462
0.00100144
0.00101218
0.00102272
0.00103304
0.00104315
0.00105306
0.00106278
0.00107229
0.00108159
0.00109068
0.00109956
0.00110821
0.00111663
0.00112479
0.00113269
0.00114031
0.00114763
0.00115463
0.00116129
0.00116758
0.00117349
0.00117899
0.00118406
0.00118868
0.00119281
0.00119643
0.00119954
0.00120212
0.00120412
0.00120552
0.00120633
0.00120654
0.00120614
0.00120514
0.00120353
0.00120132
0.00119852
0.00119514
0.0011912
0.0011867
0.00118168
0.00117615
0.00117014
0.00116366
0.00115675
0.00114944
0.00114174
0.00113369
0.00112532
0.00111665
0.00110771
0.00109853
0.00108913
0.00107954
0.00106978
0.00105988
0.00104986
0.00103973
0.00102953
0.00101927
0.00100897
0.000998636
0.000988298
0.000977966
0.000967654
0.000957374
0.00094714
0.000936961
0.000926848
0.000916811
0.000906858
0.000896998
0.000887238
0.000877584
0.000868044
0.000858623
0.000849326
0.000840158
0.000831123
0.000822227
0.000813472
0.000804863
0.000796403
0.000788095
0.000779942
0.000771947
0.000764111
0.000756436
0.000748925
0.00074158
0.000734402
0.000727392
0.000720554
0.000713886
0.000707391
0.000701069
0.00069492
0.000688946
0.000683146
0.000677521
0.000672071
0.000666797
0.000661696
0.000656768
0.000652013
0.000647428
0.000643014
0.000638767
0.000634684
0.000630765
0.000626994
0.000623363
0.000619863
0.000616483
0.000613213
0.000610042
0.000606964
0.000603967
0.000601043
0.000598178
0.000595367
0.000592598
0.000589857
0.000587131
0.000584421
0.000581706
0.00057896
0.000576166
0.000573291
0.000570315
0.000567141
0.000564115
0.000557838
1.84627e-06
4.50385e-05
0.000107489
0.0001647
0.00021387
0.000256067
0.000292835
0.000325179
0.000354169
0.000380694
0.000405449
0.000428942
0.00045155
0.000473538
0.000495084
0.000516296
0.000537235
0.000557926
0.000578372
0.000598564
0.000618479
0.000638096
0.000657392
0.000676346
0.00069493
0.000713147
0.000731013
0.00074857
0.000765697
0.000782358
0.000798577
0.000814367
0.000829738
0.000844701
0.000859266
0.000873447
0.000887255
0.000900704
0.000913809
0.000926583
0.000939042
0.0009512
0.000963072
0.000974674
0.000986019
0.000997121
0.00100799
0.00101865
0.0010291
0.00103935
0.00104942
0.0010593
0.00106901
0.00107855
0.00108792
0.00109712
0.00110615
0.001115
0.00112366
0.00113214
0.00114041
0.00114846
0.00115628
0.00116385
0.00117115
0.00117815
0.00118484
0.00119118
0.00119716
0.00120275
0.00120792
0.00121265
0.00121688
0.00122065
0.00122391
0.00122658
0.00122866
0.00123016
0.00123104
0.00123132
0.00123098
0.00123002
0.00122845
0.00122627
0.00122348
0.00122011
0.00121616
0.00121165
0.00120661
0.00120106
0.00119502
0.00118851
0.00118157
0.00117422
0.0011665
0.00115842
0.00115002
0.00114133
0.00113237
0.00112318
0.00111377
0.00110418
0.00109443
0.00108454
0.00107453
0.00106444
0.00105426
0.00104404
0.00103378
0.00102349
0.00101321
0.00100294
0.000992686
0.000982475
0.000972312
0.00096221
0.000952178
0.000942225
0.000932361
0.000922593
0.000912929
0.000903375
0.000893938
0.000884624
0.000875438
0.000866385
0.00085747
0.000848697
0.000840069
0.000831592
0.000823269
0.000815101
0.000807094
0.000799248
0.000791568
0.000784054
0.000776709
0.000769536
0.000762536
0.000755711
0.000749062
0.000742591
0.000736299
0.000730186
0.000724254
0.000718504