/*--------------------------------*- C++ -*----------------------------------*\
  =========                 |
  \\      /  F ield         | OpenFOAM: The Open Source CFD Toolbox
   \\    /   O peration     | Website:  https://openfoam.org
    \\  /    A nd           | Version:  7
     \\/     M anipulation  |
\*---------------------------------------------------------------------------*/
FoamFile
{
    version     2.0;
    format      ascii;
    class       volScalarField;
    location    "100";
    object      p;
}
// * * * * * * * * * * * * * * * * * * * * * * * * * * * * * * * * * * * * * //

dimensions      [0 2 -2 0 0 0 0];

internalField   nonuniform List<scalar> 
12225
(
-0.353852
-0.294467
-0.233401
-0.185108
-0.147882
-0.119978
-0.098737
-0.0823635
-0.0696875
-0.0598497
-0.0522331
-0.0464121
-0.0421043
-0.0391739
-0.0376555
-0.038036
-0.0416029
-0.0533234
-0.433614
-0.305191
-0.24022
-0.191182
-0.153293
-0.124847
-0.103099
-0.0862849
-0.0732348
-0.0630801
-0.0551976
-0.0491569
-0.0446731
-0.0416108
-0.0399997
-0.0402736
-0.043205
-0.0515308
-0.489263
-0.320266
-0.252302
-0.201531
-0.1624
-0.133027
-0.110429
-0.0928775
-0.0791976
-0.0685059
-0.0601685
-0.0537452
-0.0489412
-0.0456074
-0.043732
-0.0435765
-0.0452672
-0.0489517
-0.505514
-0.333313
-0.264162
-0.21162
-0.171388
-0.14121
-0.117868
-0.0996563
-0.0853964
-0.0741966
-0.0654163
-0.0586045
-0.0534504
-0.0497718
-0.0474766
-0.0465965
-0.0467628
-0.0472441
-0.498002
-0.342464
-0.273248
-0.219711
-0.178858
-0.148181
-0.124345
-0.105666
-0.0909733
-0.0793764
-0.0702329
-0.0630828
-0.0575957
-0.0535469
-0.0507562
-0.049067
-0.0478603
-0.0464961
-0.476919
-0.347013
-0.279188
-0.22586
-0.18489
-0.154012
-0.129911
-0.110932
-0.0959314
-0.0840307
-0.0745904
-0.0671432
-0.0613393
-0.0569122
-0.0536096
-0.0511575
-0.0488545
-0.0464149
-0.447047
-0.346291
-0.281772
-0.230012
-0.189559
-0.158764
-0.13462
-0.115498
-0.1003
-0.0881765
-0.0784955
-0.0707861
-0.0646822
-0.0598837
-0.0560901
-0.0529706
-0.0498404
-0.0467941
-0.411774
-0.340017
-0.280819
-0.231837
-0.192759
-0.162373
-0.138425
-0.119328
-0.10405
-0.0917852
-0.0819209
-0.0739872
-0.0676081
-0.0624621
-0.0582247
-0.0545519
-0.0508327
-0.0474961
-0.373827
-0.328377
-0.276359
-0.231078
-0.194263
-0.164765
-0.141263
-0.122375
-0.107146
-0.0948302
-0.0848447
-0.0767306
-0.0701112
-0.0646568
-0.0600402
-0.0559335
-0.0518251
-0.0484005
-0.335193
-0.311958
-0.268588
-0.22773
-0.193827
-0.165844
-0.143077
-0.124599
-0.10956
-0.0972926
-0.0872554
-0.0790122
-0.0721971
-0.0664856
-0.0615646
-0.0571382
-0.0527963
-0.0494083
-0.297099
-0.291753
-0.257828
-0.221989
-0.191437
-0.16553
-0.143832
-0.12596
-0.111261
-0.0991505
-0.089141
-0.0808299
-0.0738734
-0.0679648
-0.0628171
-0.0581738
-0.0537093
-0.0504385
-0.263252
-0.270824
-0.245729
-0.214854
-0.187651
-0.163994
-0.143591
-0.126443
-0.112185
-0.100312
-0.0903983
-0.0820826
-0.0750497
-0.0690178
-0.0637304
-0.0589677
-0.0544526
-0.0513467
-0.232256
-0.248448
-0.232062
-0.206221
-0.182462
-0.161262
-0.142419
-0.126192
-0.112504
-0.100963
-0.0912153
-0.0829532
-0.0758968
-0.0697969
-0.0644284
-0.0596045
-0.0551384
-0.0520854
-0.200001
-0.222511
-0.215181
-0.195007
-0.175144
-0.156825
-0.139969
-0.125037
-0.112151
-0.1011
-0.0916295
-0.0834985
-0.0764799
-0.0703647
-0.0649674
-0.0601355
-0.0557704
-0.0527289
-0.167561
-0.194487
-0.19571
-0.181501
-0.165684
-0.150528
-0.136036
-0.122722
-0.110876
-0.100489
-0.0914278
-0.0835302
-0.0766314
-0.0705742
-0.0652154
-0.0604393
-0.0562021
-0.053163
-0.136923
-0.166721
-0.175301
-0.166842
-0.154856
-0.142838
-0.13082
-0.119234
-0.108554
-0.0989548
-0.0904123
-0.0828429
-0.0761474
-0.0702224
-0.0649668
-0.0602985
-0.0561996
-0.0531355
-0.111287
-0.14274
-0.156827
-0.153264
-0.144556
-0.135163
-0.125256
-0.11517
-0.105518
-0.0966307
-0.0885759
-0.0813315
-0.0748521
-0.0690771
-0.0639388
-0.0593771
-0.0553729
-0.0521771
-0.0963981
-0.127896
-0.144756
-0.144152
-0.137427
-0.129557
-0.120911
-0.111736
-0.102688
-0.0942036
-0.0864229
-0.0793647
-0.0730147
-0.0673381
-0.0622857
-0.0578071
-0.0538636
-0.0504888
-0.102301
-0.131974
-0.147551
-0.145996
-0.138356
-0.1297
-0.120442
-0.11077
-0.101293
-0.0924398
-0.0843433
-0.0770111
-0.0704186
-0.0645227
-0.0592642
-0.0545779
-0.0503814
-0.0464915
-0.1262
-0.155169
-0.166046
-0.159462
-0.148139
-0.136665
-0.125169
-0.113841
-0.103185
-0.0934839
-0.0847699
-0.0769943
-0.0700862
-0.0639729
-0.0585697
-0.0538005
-0.049559
-0.0455746
-0.16539
-0.189939
-0.192189
-0.178134
-0.16156
-0.145987
-0.131197
-0.117411
-0.104993
-0.0940156
-0.0843729
-0.0759229
-0.0685329
-0.0620698
-0.056417
-0.0514623
-0.0470843
-0.0429497
-0.214846
-0.230741
-0.220832
-0.197659
-0.174823
-0.154505
-0.136129
-0.119811
-0.105685
-0.0935477
-0.083114
-0.074138
-0.0664065
-0.0597309
-0.0539536
-0.04894
-0.0445551
-0.0404757
-0.271484
-0.272364
-0.246843
-0.213989
-0.184775
-0.159777
-0.138255
-0.119981
-0.104613
-0.0916772
-0.0807414
-0.0714579
-0.0635438
-0.0567718
-0.0509516
-0.0459357
-0.0415779
-0.0375781
-0.332433
-0.309045
-0.265923
-0.224532
-0.189867
-0.161088
-0.137409
-0.117936
-0.101839
-0.0884677
-0.0772942
-0.0678974
-0.0599506
-0.0531951
-0.0474257
-0.0424762
-0.038206
-0.0343373
-0.393495
-0.335465
-0.276238
-0.228606
-0.189833
-0.15874
-0.133949
-0.113888
-0.0974908
-0.083998
-0.072815
-0.0634791
-0.0556355
-0.0490059
-0.0433721
-0.0385605
-0.0344327
-0.0307402
-0.448995
-0.34861
-0.277643
-0.22642
-0.185378
-0.153377
-0.128252
-0.108103
-0.0917695
-0.0784284
-0.067442
-0.058324
-0.0507035
-0.0442932
-0.0388696
-0.0342559
-0.0303167
-0.026837
-0.490197
-0.348122
-0.270844
-0.218781
-0.177432
-0.145511
-0.120638
-0.100823
-0.0848599
-0.0718985
-0.0612833
-0.0525164
-0.0452254
-0.0391198
-0.0339761
-0.029618
-0.0259126
-0.0226805
-0.499581
-0.3354
-0.257357
-0.206538
-0.166308
-0.135215
-0.111105
-0.0920214
-0.0767344
-0.0643878
-0.0543274
-0.0460605
-0.0392175
-0.0335137
-0.0287301
-0.024694
-0.0212771
-0.0183322
-0.45132
-0.314258
-0.241013
-0.191994
-0.153535
-0.1237
-0.100673
-0.0825803
-0.0681683
-0.056588
-0.047201
-0.039526
-0.0332039
-0.0279602
-0.0235836
-0.0199088
-0.0168097
-0.01416
-0.357735
-0.296406
-0.230261
-0.182253
-0.1449
-0.115886
-0.09358
-0.0761493
-0.0623195
-0.0512469
-0.0423044
-0.0350195
-0.0290401
-0.0240988
-0.0199905
-0.0165527
-0.013663
-0.0111803
-0.0670523
-0.0670991
-0.0673678
-0.0678173
-0.0683378
-0.0688885
-0.0694735
-0.0701023
-0.0707913
-0.0715593
-0.0724253
-0.0734096
-0.0745329
-0.0758135
-0.0772642
-0.078893
-0.080701
-0.0826854
-0.0848338
-0.0871304
-0.0895494
-0.0920647
-0.094639
-0.0972404
-0.0998272
-0.102367
-0.104818
-0.10715
-0.109325
-0.111317
-0.113088
-0.114622
-0.115885
-0.116864
-0.117529
-0.117873
-0.117868
-0.11751
-0.11677
-0.115644
-0.114103
-0.112148
-0.109757
-0.106939
-0.103684
-0.100011
-0.0959075
-0.0913798
-0.0863967
-0.080944
-0.0749935
-0.0685609
-0.0616508
-0.0542854
-0.0464674
-0.0382186
-0.0295446
-0.0204685
-0.0110023
-0.00117281
0.00900243
0.019494
0.0302779
0.041322
0.0525968
0.0640685
0.0757035
0.0874667
0.0993211
0.111231
0.123158
0.135068
0.146923
0.158691
0.170334
0.181825
0.193126
0.204214
0.215054
0.22563
0.235911
0.245884
0.255524
0.264825
0.273765
0.282342
0.290541
0.298362
0.305798
0.312852
0.319529
0.32583
0.331762
0.33734
0.342577
0.347478
0.352047
0.356292
0.360221
0.363846
0.367179
0.370232
0.373017
0.375547
0.377834
0.379891
0.381732
0.383369
0.384815
0.386082
0.387181
0.388123
0.388918
0.389578
0.39011
0.390525
0.390831
0.391038
0.391153
0.391184
0.391138
0.39102
0.390834
0.390589
0.390288
0.389939
0.389545
0.389113
0.388645
0.388146
0.387618
0.387066
0.386491
0.385896
0.385284
0.384656
0.384015
0.383363
0.382701
0.382032
0.381356
0.380675
0.379988
0.379298
0.378603
0.377906
0.377207
0.376507
0.375806
0.375104
0.374402
0.3737
0.372999
0.372299
0.371601
0.370902
0.370204
0.369506
0.36881
0.368115
0.367424
0.366736
0.366053
0.365376
0.364706
0.364045
0.363397
0.362765
0.362156
0.361577
0.36104
0.360563
0.360163
0.359867
0.35973
0.359818
0.360258
0.361144
0.363199
0.365319
-0.066321
-0.0665333
-0.0669023
-0.0673159
-0.0676815
-0.0679854
-0.0682814
-0.0686341
-0.0690788
-0.0696315
-0.0703136
-0.0711481
-0.0721532
-0.0733434
-0.0747303
-0.0763237
-0.0781258
-0.0801324
-0.0823278
-0.0846911
-0.0871913
-0.0897972
-0.0924698
-0.095174
-0.0978674
-0.100515
-0.103077
-0.10552
-0.107809
-0.109916
-0.111808
-0.113466
-0.114861
-0.115976
-0.116786
-0.117282
-0.117441
-0.117255
-0.116702
-0.115776
-0.114455
-0.112734
-0.110594
-0.10803
-0.105028
-0.101587
-0.0976902
-0.0933374
-0.0885182
-0.0832418
-0.0775101
-0.0713292
-0.0646921
-0.0576061
-0.0500736
-0.0421079
-0.033717
-0.0249183
-0.0157261
-0.0061617
0.00375536
0.0139998
0.0245468
0.0353674
0.046432
0.0577088
0.0691645
0.0807652
0.0924747
0.104258
0.116079
0.127902
0.139691
0.151411
0.163028
0.17451
0.185822
0.196939
0.207827
0.218467
0.228829
0.238898
0.24865
0.258073
0.26715
0.275873
0.284229
0.292213
0.299819
0.307048
0.313903
0.320382
0.326488
0.332227
0.337606
0.34264
0.347344
0.351726
0.355795
0.359561
0.363037
0.366232
0.36916
0.371831
0.374258
0.376453
0.378431
0.380201
0.381778
0.383172
0.384395
0.385457
0.38637
0.387143
0.387786
0.388309
0.388719
0.389025
0.389236
0.38936
0.389402
0.389368
0.389265
0.389097
0.388873
0.388596
0.388272
0.387906
0.387501
0.387062
0.386592
0.386094
0.385571
0.385026
0.38446
0.383877
0.383279
0.382667
0.382043
0.381411
0.380769
0.38012
0.379465
0.378803
0.378136
0.377465
0.37679
0.376113
0.375434
0.374752
0.37407
0.373386
0.372702
0.372018
0.371333
0.370648
0.369964
0.369279
0.368595
0.367912
0.367231
0.366554
0.365881
0.365212
0.364551
0.363898
0.363258
0.362635
0.362034
0.361463
0.360935
0.360463
0.360069
0.359781
0.359649
0.359733
0.360157
0.36098
0.362833
0.364547
-0.0640864
-0.0646414
-0.0654987
-0.0661386
-0.0664642
-0.0666228
-0.0667494
-0.0669402
-0.0672607
-0.0677502
-0.0684313
-0.0693162
-0.0704109
-0.0717192
-0.0732424
-0.0749766
-0.0769104
-0.0790287
-0.0813098
-0.0837301
-0.0862594
-0.0888682
-0.0915215
-0.0941883
-0.096832
-0.0994225
-0.101925
-0.104312
-0.106551
-0.108619
-0.110486
-0.112133
-0.113532
-0.114669
-0.11552
-0.116071
-0.116303
-0.116204
-0.115757
-0.114953
-0.113775
-0.112215
-0.11026
-0.107902
-0.105125
-0.101922
-0.0982767
-0.094182
-0.0896296
-0.0846237
-0.0791662
-0.0732626
-0.0669113
-0.0601169
-0.0528826
-0.0452178
-0.0371309
-0.0286358
-0.0197466
-0.0104818
-0.000860559
0.00909445
0.0193589
0.0299062
0.0407075
0.0517327
0.0629497
0.0743257
0.0858263
0.0974171
0.109063
0.120728
0.132377
0.143977
0.155492
0.166891
0.178141
0.189212
0.200076
0.210708
0.221083
0.231179
0.240976
0.250458
0.259609
0.268419
0.276875
0.284971
0.292701
0.300067
0.30707
0.313712
0.319994
0.325921
0.3315
0.33674
0.341649
0.346236
0.350508
0.354476
0.35815
0.361541
0.36466
0.367519
0.370131
0.372505
0.374658
0.376598
0.378339
0.379892
0.381268
0.382478
0.383533
0.384443
0.385218
0.385866
0.386397
0.386819
0.387141
0.387369
0.387512
0.387574
0.387563
0.387483
0.387342
0.387145
0.386897
0.386603
0.386267
0.385892
0.385484
0.385043
0.384576
0.384082
0.383566
0.38303
0.382477
0.381907
0.381324
0.380728
0.380123
0.379507
0.378883
0.378251
0.377613
0.376969
0.376319
0.375666
0.375009
0.374349
0.373687
0.373022
0.372356
0.371688
0.371018
0.370348
0.369677
0.369006
0.368335
0.367664
0.366995
0.366328
0.365665
0.365006
0.364353
0.363709
0.363077
0.362461
0.361867
0.361305
0.360782
0.360315
0.359923
0.359635
0.359494
0.359549
0.359915
0.360592
0.362075
0.363084
-0.0608417
-0.0617444
-0.063285
-0.064455
-0.0651082
-0.0654976
-0.0658027
-0.0661363
-0.0665807
-0.0671907
-0.067998
-0.069018
-0.0702562
-0.071712
-0.0733783
-0.0752437
-0.077291
-0.0795012
-0.0818508
-0.0843159
-0.0868676
-0.0894792
-0.092119
-0.0947594
-0.097368
-0.0999185
-0.102379
-0.104727
-0.106931
-0.108971
-0.11082
-0.11246
-0.113865
-0.115021
-0.115904
-0.116502
-0.116793
-0.116765
-0.116401
-0.11569
-0.114615
-0.113169
-0.111336
-0.109108
-0.106472
-0.10342
-0.0999363
-0.0960155
-0.0916487
-0.0868367
-0.0815772
-0.0758731
-0.0697234
-0.0631322
-0.0561024
-0.048642
-0.0407591
-0.0324661
-0.0237765
-0.0147073
-0.00527715
0.00449243
0.0145779
0.0249532
0.0355906
0.0464606
0.0575317
0.0687717
0.0801469
0.0916232
0.103166
0.11474
0.126311
0.137843
0.149304
0.160661
0.171881
0.182935
0.193795
0.204433
0.214826
0.22495
0.234786
0.244317
0.253526
0.262401
0.270931
0.279111
0.286933
0.294402
0.301517
0.308278
0.314688
0.320751
0.326472
0.331857
0.336913
0.341648
0.346068
0.350184
0.354006
0.357544
0.360808
0.363811
0.366563
0.369077
0.371365
0.373439
0.37531
0.37699
0.378489
0.379819
0.38099
0.382012
0.382894
0.383647
0.384278
0.384797
0.385212
0.38553
0.385758
0.385903
0.385969
0.385965
0.385897
0.385769
0.385588
0.385357
0.385081
0.384764
0.384409
0.384021
0.383602
0.383156
0.382685
0.382191
0.381678
0.381147
0.3806
0.380039
0.379466
0.378881
0.378287
0.377683
0.377071
0.376451
0.375826
0.375196
0.37456
0.37392
0.373277
0.372631
0.371981
0.37133
0.370676
0.37002
0.369362
0.368704
0.368045
0.367386
0.366728
0.366072
0.365417
0.364767
0.364123
0.363486
0.36286
0.36225
0.361661
0.361101
0.360579
0.360108
0.359709
0.359407
0.359235
0.359229
0.359484
0.359954
0.360999
0.36133
-0.0576833
-0.0589194
-0.061157
-0.0629413
-0.0640582
-0.064831
-0.0654693
-0.0660956
-0.0668003
-0.0676463
-0.0686706
-0.0698914
-0.0713138
-0.0729353
-0.0747468
-0.0767347
-0.07888
-0.0811634
-0.0835609
-0.0860502
-0.0886044
-0.0911992
-0.0938064
-0.0964018
-0.0989566
-0.101448
-0.103848
-0.106135
-0.108283
-0.110273
-0.112081
-0.113689
-0.115074
-0.116221
-0.117109
-0.117725
-0.118047
-0.118065
-0.117758
-0.117116
-0.116121
-0.114765
-0.11303
-0.110908
-0.108385
-0.105453
-0.102098
-0.098314
-0.0940926
-0.0894312
-0.0843249
-0.0787744
-0.0727781
-0.0663393
-0.0594605
-0.052149
-0.044412
-0.0362613
-0.0277097
-0.0187735
-0.00947065
0.000177768
0.0101486
0.0204167
0.0309544
0.0417324
0.0527197
0.0638843
0.0751923
0.0866101
0.0981029
0.109636
0.121175
0.132684
0.14413
0.15548
0.166703
0.177767
0.188644
0.199307
0.209732
0.219895
0.229776
0.239358
0.248624
0.257563
0.266165
0.274422
0.282329
0.289886
0.297094
0.30395
0.310457
0.316619
0.322442
0.327931
0.333092
0.337932
0.342459
0.346682
0.350611
0.354256
0.357627
0.360736
0.363593
0.366212
0.368602
0.370778
0.372748
0.374526
0.37612
0.377543
0.378805
0.379915
0.380883
0.381719
0.38243
0.383028
0.383518
0.383909
0.384207
0.384418
0.38455
0.384609
0.3846
0.384531
0.384405
0.384227
0.384002
0.383734
0.383427
0.383083
0.382707
0.382301
0.381869
0.381413
0.380935
0.380437
0.379922
0.379392
0.378848
0.37829
0.377721
0.377142
0.376554
0.375957
0.375353
0.374742
0.374126
0.373504
0.372878
0.372248
0.371615
0.370978
0.370338
0.369695
0.36905
0.368404
0.367756
0.367108
0.366459
0.365812
0.365166
0.364523
0.363885
0.363253
0.362632
0.362025
0.361437
0.360875
0.360348
0.359868
0.359451
0.359121
0.358901
0.358817
0.358933
0.359175
0.359801
0.359577
-0.0555173
-0.0570238
-0.0597733
-0.0620695
-0.0636302
-0.0647997
-0.0657979
-0.0667489
-0.067745
-0.0688521
-0.0701103
-0.0715397
-0.0731463
-0.0749271
-0.0768721
-0.0789672
-0.0811939
-0.0835335
-0.0859638
-0.0884642
-0.0910102
-0.0935805
-0.0961498
-0.0986968
-0.101196
-0.103628
-0.105966
-0.108194
-0.110285
-0.112224
-0.113988
-0.11556
-0.116919
-0.11805
-0.118932
-0.119553
-0.119892
-0.119937
-0.119668
-0.119075
-0.118139
-0.11685
-0.115191
-0.113152
-0.110718
-0.10788
-0.104625
-0.100947
-0.096834
-0.0922841
-0.0872903
-0.081852
-0.0759666
-0.0696368
-0.0628644
-0.0556559
-0.0480184
-0.0399628
-0.0315016
-0.0226505
-0.0134274
-0.00385278
0.00605039
0.0162569
0.0267393
0.0374687
0.0484138
0.0595425
0.0708211
0.0822155
0.093691
0.105213
0.116746
0.128257
0.139709
0.151071
0.16231
0.173395
0.184298
0.194991
0.20545
0.215651
0.225575
0.235204
0.244524
0.253522
0.262188
0.270513
0.278492
0.286125
0.293408
0.300343
0.306929
0.313171
0.319073
0.324643
0.329885
0.334806
0.339416
0.343722
0.347734
0.351463
0.354917
0.358109
0.361049
0.36375
0.366222
0.368478
0.370528
0.372384
0.374056
0.375554
0.376889
0.378072
0.37911
0.380014
0.380793
0.381455
0.382008
0.38246
0.382817
0.383086
0.383273
0.383385
0.383428
0.383408
0.38333
0.383199
0.383019
0.382793
0.382526
0.382222
0.381883
0.381514
0.381116
0.380693
0.380246
0.379779
0.379293
0.37879
0.378272
0.37774
0.377194
0.376637
0.37607
0.375494
0.374909
0.374317
0.373718
0.373112
0.372502
0.371887
0.371267
0.370643
0.370016
0.369386
0.368752
0.368116
0.367479
0.36684
0.3662
0.36556
0.364921
0.364284
0.363651
0.363024
0.362405
0.361798
0.361207
0.36064
0.360103
0.359607
0.359165
0.358796
0.358517
0.358341
0.358307
0.35832
0.358571
0.357897
-0.0548288
-0.0564855
-0.0594924
-0.0621185
-0.0640211
-0.0655236
-0.0668391
-0.0680828
-0.0693427
-0.070684
-0.0721473
-0.073754
-0.0755115
-0.077418
-0.0794642
-0.0816368
-0.0839187
-0.086293
-0.0887391
-0.0912382
-0.0937684
-0.0963104
-0.0988413
-0.101343
-0.103791
-0.106169
-0.108454
-0.110629
-0.112672
-0.114567
-0.116293
-0.117835
-0.11917
-0.120287
-0.121164
-0.121788
-0.12214
-0.122207
-0.121969
-0.121416
-0.120527
-0.119292
-0.117693
-0.11572
-0.113357
-0.110593
-0.107415
-0.103816
-0.0997841
-0.0953155
-0.0904024
-0.085043
-0.0792341
-0.0729775
-0.0662746
-0.0591315
-0.0515547
-0.0435549
-0.0351444
-0.0263386
-0.0171554
-0.00761529
0.00225872
0.0124415
0.0229055
0.0336214
0.044558
0.0556828
0.0669618
0.0783606
0.0898441
0.101378
0.112926
0.124454
0.135927
0.147312
0.158576
0.169688
0.18062
0.191345
0.201837
0.212074
0.222039
0.231712
0.241078
0.250126
0.258844
0.267224
0.275261
0.282951
0.290295
0.297291
0.303938
0.310242
0.316207
0.321839
0.327144
0.332129
0.336803
0.341174
0.345252
0.349045
0.352566
0.355823
0.35883
0.361596
0.364135
0.366456
0.368571
0.37049
0.372226
0.373786
0.375183
0.376425
0.377523
0.378485
0.37932
0.380037
0.380644
0.381148
0.381556
0.381874
0.382109
0.382267
0.382356
0.382379
0.382344
0.382253
0.382112
0.381924
0.381694
0.381424
0.38112
0.380783
0.380416
0.380023
0.379605
0.379165
0.378706
0.378228
0.377734
0.377224
0.376701
0.376165
0.375618
0.37506
0.374493
0.373918
0.373335
0.372745
0.372149
0.371548
0.370941
0.37033
0.369714
0.369094
0.368471
0.367845
0.367216
0.366586
0.365953
0.36532
0.364687
0.364055
0.363426
0.3628
0.362182
0.361573
0.360978
0.360402
0.359851
0.359334
0.35886
0.358444
0.358095
0.357818
0.357631
0.357426
0.357345
0.356308
-0.0556696
-0.0573399
-0.0603628
-0.0631173
-0.065223
-0.0669527
-0.0685004
-0.0699679
-0.0714333
-0.0729565
-0.0745762
-0.0763147
-0.07818
-0.0801716
-0.0822819
-0.0844997
-0.0868099
-0.0891969
-0.0916421
-0.0941286
-0.0966358
-0.0991468
-0.101641
-0.1041
-0.106505
-0.108838
-0.11108
-0.113213
-0.115218
-0.117081
-0.118778
-0.120298
-0.12162
-0.12273
-0.123608
-0.124241
-0.12461
-0.124701
-0.124495
-0.123978
-0.123132
-0.121945
-0.120398
-0.118481
-0.116175
-0.11347
-0.110353
-0.106815
-0.102844
-0.0984349
-0.0935788
-0.0882734
-0.0825147
-0.0763041
-0.0696426
-0.0625357
-0.05499
-0.0470159
-0.0386254
-0.0298344
-0.0206606
-0.0111247
-0.00124995
0.00893804
0.0194115
0.030141
0.0410946
0.0522396
0.0635414
0.0749652
0.0864752
0.0980366
0.109614
0.121172
0.132675
0.14409
0.155384
0.166528
0.177491
0.188248
0.198775
0.209049
0.21905
0.228761
0.238167
0.247254
0.256014
0.264436
0.272515
0.28025
0.28764
0.294681
0.301375
0.307726
0.313738
0.319418
0.324771
0.329805
0.334528
0.33895
0.343078
0.346923
0.350495
0.353805
0.356864
0.359684
0.362276
0.364651
0.366819
0.368792
0.370579
0.372192
0.373641
0.374934
0.376081
0.377093
0.377977
0.378741
0.379395
0.379944
0.380396
0.380757
0.381035
0.381235
0.381363
0.381426
0.381428
0.381373
0.381268
0.381114
0.380917
0.380679
0.380406
0.380098
0.37976
0.379394
0.379003
0.378589
0.378154
0.377699
0.377227
0.376739
0.376236
0.37572
0.375191
0.374652
0.374102
0.373543
0.372975
0.3724
0.371818
0.37123
0.370635
0.370036
0.369431
0.368821
0.368208
0.367591
0.36697
0.366347
0.365721
0.365094
0.364466
0.363838
0.363211
0.362586
0.361966
0.361354
0.360752
0.360164
0.359596
0.359053
0.358544
0.358074
0.357651
0.357267
0.356927
0.356519
0.356147
0.354819
-0.0578042
-0.0593764
-0.0622215
-0.0649217
-0.067088
-0.0689289
-0.0706097
-0.0722163
-0.0738142
-0.0754564
-0.0771774
-0.0789976
-0.0809256
-0.0829627
-0.085103
-0.0873373
-0.0896519
-0.0920332
-0.0944639
-0.0969287
-0.0994088
-0.101889
-0.104348
-0.106773
-0.109142
-0.111442
-0.113652
-0.115757
-0.117738
-0.11958
-0.121264
-0.122776
-0.124096
-0.125211
-0.126101
-0.126752
-0.127144
-0.127265
-0.127092
-0.126613
-0.125809
-0.124668
-0.123168
-0.121299
-0.119043
-0.116389
-0.113321
-0.109831
-0.105905
-0.101539
-0.0967219
-0.0914515
-0.0857232
-0.0795378
-0.0728961
-0.0658035
-0.0582663
-0.050295
-0.0419017
-0.0331024
-0.023915
-0.0143608
-0.00446351
0.00575104
0.0162544
0.0270165
0.0380051
0.0491867
0.0605259
0.0719874
0.0835348
0.095133
0.106746
0.118339
0.129877
0.141325
0.152653
0.163829
0.174824
0.185613
0.196171
0.206476
0.216507
0.226248
0.235684
0.244802
0.253592
0.262045
0.270155
0.277922
0.285344
0.292418
0.299146
0.30553
0.311577
0.317291
0.32268
0.327751
0.332512
0.336972
0.341139
0.345024
0.348637
0.351989
0.355091
0.357955
0.36059
0.36301
0.365222
0.36724
0.369072
0.370729
0.372222
0.373559
0.37475
0.375805
0.376732
0.377539
0.378233
0.378823
0.379314
0.379715
0.38003
0.380268
0.380432
0.380531
0.380567
0.380546
0.380473
0.380351
0.380184
0.379976
0.379731
0.379451
0.37914
0.378799
0.378433
0.378043
0.377631
0.377198
0.376748
0.37628
0.375796
0.375298
0.374787
0.374265
0.373731
0.373188
0.372635
0.372074
0.371506
0.37093
0.370348
0.369759
0.369165
0.368565
0.367961
0.367352
0.366739
0.366123
0.365503
0.364881
0.364257
0.363632
0.363006
0.362381
0.361759
0.361141
0.36053
0.359928
0.35934
0.358769
0.358219
0.357694
0.357193
0.356702
0.356215
0.355619
0.354994
0.353433
-0.0608713
-0.0622639
-0.0647922
-0.067293
-0.0693937
-0.0712362
-0.0729524
-0.0746135
-0.0762712
-0.0779683
-0.0797347
-0.0815891
-0.0835397
-0.0855882
-0.0877299
-0.0899569
-0.0922573
-0.0946186
-0.0970255
-0.0994635
-0.101915
-0.104366
-0.106798
-0.109195
-0.11154
-0.113818
-0.11601
-0.118102
-0.120073
-0.121911
-0.123596
-0.125115
-0.126448
-0.127581
-0.128494
-0.129173
-0.129597
-0.129752
-0.129618
-0.129182
-0.128421
-0.127324
-0.12587
-0.124046
-0.121834
-0.119223
-0.116196
-0.112743
-0.108853
-0.104516
-0.0997248
-0.0944747
-0.0887612
-0.082585
-0.0759464
-0.068851
-0.0613049
-0.0533188
-0.044905
-0.0360798
-0.0268619
-0.017273
-0.00733731
0.00291831
0.0134649
0.0242717
0.0353056
0.0465322
0.0579157
0.0694197
0.0810079
0.0926452
0.104296
0.115925
0.127498
0.138979
0.150337
0.161542
0.172564
0.183378
0.19396
0.204287
0.21434
0.224101
0.233557
0.242694
0.251503
0.259975
0.268105
0.275891
0.283333
0.290428
0.297177
0.303584
0.309653
0.315392
0.320806
0.325903
0.330691
0.335179
0.339376
0.343292
0.346938
0.350324
0.353461
0.35636
0.359032
0.361489
0.363739
0.365795
0.367666
0.369362
0.370894
0.37227
0.3735
0.374593
0.375559
0.376404
0.377136
0.377762
0.37829
0.378726
0.379077
0.379349
0.379547
0.379679
0.379747
0.379758
0.379715
0.379623
0.379485
0.379305
0.379087
0.378833
0.378547
0.378232
0.377889
0.377522
0.377131
0.37672
0.376289
0.375841
0.375376
0.374896
0.374402
0.373896
0.373379
0.37285
0.372312
0.371765
0.371209
0.370646
0.370075
0.369497
0.368913
0.368324
0.367728
0.367127
0.366522
0.365912
0.365298
0.364681
0.36406
0.363437
0.362812
0.362186
0.36156
0.360935
0.360313
0.359697
0.359086
0.358485
0.357893
0.35731
0.35673
0.356135
0.355508
0.354742
0.353899
0.35215
-0.0644784
-0.0656349
-0.0677509
-0.0699404
-0.0718707
-0.0736232
-0.0752922
-0.0769318
-0.0785826
-0.0802786
-0.0820438
-0.083893
-0.0858332
-0.0878659
-0.0899869
-0.0921896
-0.0944631
-0.0967964
-0.0991747
-0.101585
-0.104011
-0.106438
-0.108849
-0.111231
-0.113563
-0.115833
-0.11802
-0.120112
-0.122089
-0.123939
-0.125641
-0.127182
-0.128541
-0.129705
-0.130652
-0.131369
-0.131833
-0.132031
-0.131941
-0.131549
-0.130834
-0.129782
-0.128372
-0.126591
-0.124419
-0.121844
-0.118851
-0.115428
-0.111562
-0.107245
-0.102468
-0.0972261
-0.0915148
-0.0853345
-0.0786857
-0.0715738
-0.0640052
-0.055991
-0.0475439
-0.038681
-0.0294213
-0.0197877
-0.00980531
0.000498333
0.0110932
0.0219477
0.0330284
0.0443007
0.0557283
0.0672744
0.0789023
0.0905765
0.102262
0.113923
0.125524
0.137031
0.148412
0.159637
0.170677
0.181506
0.192101
0.202439
0.212501
0.222271
0.231734
0.240878
0.249693
0.258171
0.266308
0.274102
0.281552
0.288656
0.295415
0.301832
0.307915
0.313667
0.319096
0.32421
0.329017
0.333525
0.337745
0.341684
0.345355
0.348768
0.351934
0.354862
0.357566
0.360053
0.362337
0.364426
0.366331
0.368062
0.369629
0.37104
0.372306
0.373435
0.374436
0.375315
0.376082
0.376743
0.377305
0.377774
0.378159
0.378463
0.378695
0.378857
0.378957
0.378997
0.378984
0.37892
0.37881
0.378657
0.378465
0.378237
0.377976
0.377684
0.377364
0.377019
0.37665
0.376259
0.375849
0.375419
0.374972
0.37451
0.374033
0.373543
0.373041
0.372527
0.372003
0.371469
0.370926
0.370374
0.369815
0.369248
0.368675
0.368094
0.367508
0.366915
0.366317
0.365713
0.365105
0.364491
0.363874
0.363252
0.362627
0.361999
0.361369
0.360736
0.360103
0.35947
0.358836
0.358203
0.357567
0.356926
0.356269
0.355575
0.354818
0.353898
0.352866
0.350968
-0.06823
-0.0691239
-0.0707802
-0.0725881
-0.0742683
-0.0758521
-0.0774019
-0.0789577
-0.0805485
-0.0821982
-0.083924
-0.0857368
-0.0876414
-0.0896386
-0.0917243
-0.0938923
-0.0961327
-0.0984348
-0.100785
-0.103171
-0.105577
-0.10799
-0.11039
-0.112765
-0.115096
-0.117369
-0.119566
-0.121673
-0.123672
-0.125549
-0.127282
-0.128859
-0.130257
-0.131462
-0.132452
-0.133214
-0.133725
-0.13397
-0.133928
-0.133583
-0.132913
-0.131905
-0.130536
-0.128793
-0.126656
-0.124112
-0.121145
-0.117743
-0.113893
-0.109587
-0.104814
-0.0995701
-0.093851
-0.0876568
-0.0809883
-0.0738514
-0.066253
-0.0582049
-0.0497203
-0.0408166
-0.0315134
-0.0218341
-0.0118045
-0.0014533
0.00918885
0.0200895
0.0312145
0.0425287
0.0539954
0.0655777
0.0772389
0.0889428
0.100654
0.112337
0.123957
0.135479
0.146871
0.158103
0.169147
0.179977
0.19057
0.200905
0.210962
0.220725
0.230181
0.239317
0.248125
0.256596
0.264726
0.272515
0.27996
0.287061
0.293818
0.300236
0.306321
0.312077
0.317513
0.322636
0.327453
0.331974
0.336208
0.340165
0.343855
0.34729
0.350478
0.353432
0.356161
0.358677
0.360989
0.363108
0.365044
0.366807
0.368405
0.369849
0.371148
0.372311
0.373345
0.374258
0.375058
0.375751
0.376346
0.376848
0.377264
0.3776
0.377863
0.378056
0.378185
0.378255
0.37827
0.378234
0.378152
0.378025
0.377859
0.377656
0.377419
0.37715
0.376854
0.37653
0.376183
0.375812
0.375421
0.37501
0.374581
0.374136
0.373676
0.373202
0.372714
0.372215
0.371705
0.371184
0.370654
0.370114
0.369566
0.36901
0.368446
0.367875
0.367297
0.366713
0.366122
0.365524
0.364921
0.364312
0.363697
0.363077
0.362452
0.361821
0.361186
0.360545
0.3599
0.359249
0.358591
0.357925
0.357246
0.356548
0.355817
0.355027
0.354152
0.353093
0.351898
0.34988
-0.0717877
-0.0724185
-0.073601
-0.0749858
-0.0763626
-0.0777246
-0.0791047
-0.0805285
-0.0820151
-0.0835801
-0.0852346
-0.0869855
-0.088835
-0.0907824
-0.0928236
-0.094952
-0.097158
-0.0994312
-0.101758
-0.104125
-0.106518
-0.108922
-0.11132
-0.113698
-0.116039
-0.118329
-0.12055
-0.122688
-0.124722
-0.126637
-0.128412
-0.130033
-0.131477
-0.132729
-0.133769
-0.13458
-0.135139
-0.135433
-0.135437
-0.135138
-0.134511
-0.133543
-0.132212
-0.130503
-0.128395
-0.125878
-0.122932
-0.119546
-0.115707
-0.111406
-0.106632
-0.101383
-0.0956521
-0.089441
-0.0827504
-0.0755868
-0.0679576
-0.059875
-0.0513529
-0.0424091
-0.033064
-0.0233416
-0.0132683
-0.00287349
0.0078112
0.0187524
0.0299151
0.0412634
0.0527602
0.0643684
0.076051
0.0877723
0.0994962
0.111187
0.12281
0.13433
0.145716
0.156938
0.167968
0.178782
0.189356
0.199669
0.209704
0.219444
0.228876
0.237989
0.246773
0.255222
0.263331
0.2711
0.278528
0.285613
0.292357
0.298765
0.304841
0.310593
0.316027
0.32115
0.32597
0.330498
0.33474
0.338709
0.342413
0.345864
0.349071
0.352046
0.354798
0.357338
0.359676
0.361822
0.363786
0.365578
0.367206
0.368682
0.370012
0.371206
0.372272
0.373217
0.374049
0.374774
0.3754
0.375935
0.376382
0.37675
0.377043
0.377266
0.377425
0.377524
0.377567
0.377559
0.377503
0.377404
0.377263
0.377084
0.376872
0.376627
0.376353
0.376051
0.375724
0.375374
0.375002
0.37461
0.374199
0.373772
0.373328
0.37287
0.372398
0.371913
0.371416
0.370909
0.370391
0.369863
0.369327
0.368781
0.368227
0.367666
0.367096
0.366519
0.365935
0.365344
0.364746
0.364141
0.363529
0.362911
0.362285
0.361652
0.361011
0.360362
0.359704
0.359035
0.358353
0.357654
0.356933
0.356179
0.355377
0.354499
0.353514
0.352333
0.350996
0.348881
-0.0749075
-0.0752868
-0.0760044
-0.0769496
-0.0779874
-0.0790858
-0.0802548
-0.0815086
-0.0828577
-0.0843095
-0.0858692
-0.0875395
-0.0893204
-0.0912092
-0.0932002
-0.0952859
-0.0974561
-0.0997001
-0.102005
-0.104357
-0.106742
-0.109145
-0.111551
-0.113945
-0.116309
-0.11863
-0.120887
-0.123063
-0.125139
-0.127099
-0.12892
-0.130589
-0.132082
-0.133385
-0.134475
-0.135335
-0.135944
-0.136285
-0.136335
-0.136079
-0.135493
-0.134563
-0.133266
-0.131588
-0.129508
-0.127013
-0.124085
-0.120713
-0.116882
-0.112584
-0.107809
-0.102552
-0.0968096
-0.0905816
-0.0838698
-0.0766805
-0.069022
-0.0609067
-0.0523493
-0.0433685
-0.0339855
-0.024225
-0.0141145
-0.0036844
0.00703293
0.0180033
0.0291911
0.0405598
0.052072
0.0636903
0.0753777
0.0870983
0.0988157
0.110495
0.1221
0.133598
0.144956
0.156147
0.167142
0.177918
0.188452
0.198725
0.208717
0.218415
0.227804
0.236875
0.245619
0.25403
0.262101
0.269836
0.277233
0.28429
0.291009
0.297395
0.303454
0.309192
0.314615
0.31973
0.324548
0.329074
0.33332
0.337295
0.341009
0.344472
0.347694
0.350686
0.353458
0.356019
0.358381
0.360552
0.362542
0.364361
0.366019
0.367523
0.368884
0.370109
0.371206
0.372183
0.373046
0.373803
0.374461
0.375026
0.375505
0.375904
0.376227
0.376481
0.376669
0.376797
0.376869
0.376889
0.37686
0.376787
0.376672
0.376518
0.37633
0.376109
0.375858
0.375578
0.375272
0.374942
0.37459
0.374217
0.373824
0.373414
0.372987
0.372545
0.372088
0.371618
0.371135
0.370641
0.370136
0.36962
0.369095