/*--------------------------------*- C++ -*----------------------------------*\
  =========                 |
  \\      /  F ield         | OpenFOAM: The Open Source CFD Toolbox
   \\    /   O peration     | Website:  https://openfoam.org
    \\  /    A nd           | Version:  7
     \\/     M anipulation  |
\*---------------------------------------------------------------------------*/
FoamFile
{
    version     2.0;
    format      ascii;
    class       surfaceScalarField;
    location    "100";
    object      phi;
}
// * * * * * * * * * * * * * * * * * * * * * * * * * * * * * * * * * * * * * //

dimensions      [0 3 -1 0 0 0 0];

internalField   nonuniform List<scalar> 
24170
(
3.54199e-08
-1.95111e-08
5.5246e-08
-1.98263e-08
7.16348e-08
-1.63889e-08
8.56203e-08
-1.39858e-08
9.78579e-08
-1.22377e-08
1.08248e-07
-1.039e-08
1.17042e-07
-8.79409e-09
1.24516e-07
-7.4745e-09
1.30908e-07
-6.3924e-09
1.36421e-07
-5.51307e-09
1.41226e-07
-4.80485e-09
1.45473e-07
-4.24735e-09
1.49309e-07
-3.8363e-09
1.52905e-07
-3.59545e-09
1.56513e-07
-3.60857e-09
1.60699e-07
-4.18631e-09
1.66893e-07
-6.19458e-09
-1.49484e-08
1.81841e-07
7.59586e-08
-4.37793e-08
9.99363e-08
-4.38044e-08
1.2042e-07
-3.68726e-08
1.38322e-07
-3.18889e-08
1.53815e-07
-2.77309e-08
1.67238e-07
-2.38135e-08
1.78882e-07
-2.04379e-08
1.8902e-07
-1.76125e-08
1.97897e-07
-1.52699e-08
2.05725e-07
-1.33414e-08
2.12686e-07
-1.17665e-08
2.18944e-07
-1.05057e-08
2.24656e-07
-9.54871e-09
2.29996e-07
-8.93572e-09
2.35193e-07
-8.80612e-09
2.40587e-07
-9.58041e-09
2.46678e-07
-1.22868e-08
-1.95568e-08
2.51286e-07
1.13648e-07
-6.33365e-08
1.37389e-07
-6.75457e-08
1.59141e-07
-5.86242e-08
1.78147e-07
-5.08949e-08
1.94624e-07
-4.4208e-08
2.09031e-07
-3.82207e-08
2.21665e-07
-3.30712e-08
2.3278e-07
-2.87281e-08
2.42608e-07
-2.50978e-08
2.51349e-07
-2.20827e-08
2.59181e-07
-1.9598e-08
2.66262e-07
-1.75864e-08
2.72742e-07
-1.60288e-08
2.78774e-07
-1.49678e-08
2.8452e-07
-1.45524e-08
2.90107e-07
-1.51678e-08
2.95369e-07
-1.75483e-08
-2.26136e-08
2.98426e-07
1.57507e-07
-7.69101e-08
1.78533e-07
-8.85713e-08
1.9971e-07
-7.9801e-08
2.18708e-07
-6.98933e-08
2.35406e-07
-6.09061e-08
2.50153e-07
-5.29681e-08
2.63205e-07
-4.61232e-08
2.74786e-07
-4.03096e-08
2.85103e-07
-3.54144e-08
2.94338e-07
-3.13179e-08
3.02655e-07
-2.79158e-08
3.10204e-07
-2.51349e-08
3.17119e-07
-2.2944e-08
3.23525e-07
-2.1374e-08
3.2952e-07
-2.05477e-08
3.35096e-07
-2.0744e-08
3.3991e-07
-2.23625e-08
-2.54882e-08
3.42784e-07
2.09613e-07
-8.44288e-08
2.26745e-07
-1.05703e-07
2.46011e-07
-9.90671e-08
2.64133e-07
-8.80157e-08
2.80447e-07
-7.72199e-08
2.95056e-07
-6.75773e-08
3.08123e-07
-5.91893e-08
3.19818e-07
-5.20049e-08
3.30313e-07
-4.59088e-08
3.39764e-07
-4.07695e-08
3.48318e-07
-3.64693e-08
3.56104e-07
-3.29216e-08
3.63241e-07
-3.00803e-08
3.69821e-07
-2.79545e-08
3.75894e-07
-2.66203e-08
3.81386e-07
-2.62357e-08
3.85962e-07
-2.69389e-08
-2.84483e-08
3.88922e-07
2.71483e-07
-8.64244e-08
2.83976e-07
-1.18196e-07
3.00274e-07
-1.15365e-07
3.16699e-07
-1.04441e-07
3.3201e-07
-9.2531e-08
3.45997e-07
-8.15645e-08
3.58677e-07
-7.18697e-08
3.70145e-07
-6.3473e-08
3.80521e-07
-5.62847e-08
3.89927e-07
-5.01762e-08
3.98483e-07
-4.50254e-08
4.06297e-07
-4.07356e-08
4.13462e-07
-3.72453e-08
4.20044e-07
-3.45364e-08
4.26055e-07
-3.2632e-08
4.31403e-07
-3.15831e-08
4.35817e-07
-3.13538e-08
-3.15434e-08
4.38912e-07
3.44471e-07
-8.38397e-08
3.51881e-07
-1.25606e-07
3.64346e-07
-1.27829e-07
3.78256e-07
-1.18351e-07
3.91908e-07
-1.06183e-07
4.04743e-07
-9.43991e-08
4.16598e-07
-8.37245e-08
4.27465e-07
-7.43401e-08
4.37398e-07
-6.62182e-08
4.46476e-07
-5.92539e-08
4.54782e-07
-5.33315e-08
4.62397e-07
-4.83503e-08
4.69387e-07
-4.42355e-08
4.75792e-07
-4.09413e-08
4.81602e-07
-3.84421e-08
4.86726e-07
-3.67072e-08
4.90974e-07
-3.56014e-08
-3.47288e-08
4.9416e-07
4.29731e-07
-7.78329e-08
4.31967e-07
-1.27841e-07
4.39943e-07
-1.35806e-07
4.50557e-07
-1.28965e-07
4.61867e-07
-1.17493e-07
4.72969e-07
-1.05502e-07
4.83508e-07
-9.42634e-08
4.93354e-07
-8.41861e-08
5.0248e-07
-7.53441e-08
5.10907e-07
-6.76811e-08
5.18677e-07
-6.1102e-08
5.25837e-07
-5.55107e-08
5.32426e-07
-5.08236e-08
5.38456e-07
-4.69723e-08
5.43907e-07
-4.38926e-08
5.48699e-07
-4.14997e-08
5.52713e-07
-3.96148e-08
-3.78989e-08
5.55883e-07
5.28216e-07
-6.96109e-08
5.25559e-07
-1.25185e-07
5.28673e-07
-1.3892e-07
5.35314e-07
-1.35606e-07
5.43594e-07
-1.25772e-07
5.52352e-07
-1.1426e-07
5.61038e-07
-1.0295e-07
5.69394e-07
-9.2542e-08
5.773e-07
-8.32499e-08
5.84711e-07
-7.50919e-08
5.9162e-07
-6.80107e-08
5.98034e-07
-6.19251e-08
6.03961e-07
-5.67506e-08
6.09393e-07
-5.24044e-08
6.14298e-07
-4.87971e-08
6.18613e-07
-4.58153e-08
6.22271e-07
-4.32729e-08
-4.08996e-08
6.25272e-07
6.40661e-07
-6.03006e-08
6.33735e-07
-1.18259e-07
6.31952e-07
-1.37137e-07
6.34147e-07
-1.37801e-07
6.38759e-07
-1.30384e-07
6.44559e-07
-1.2006e-07
6.5083e-07
-1.09222e-07
6.5719e-07
-9.89013e-08
6.63421e-07
-8.94818e-08
6.69408e-07
-8.10789e-08
6.75088e-07
-7.36909e-08
6.80427e-07
-6.72641e-08
6.85399e-07
-6.17227e-08
6.89975e-07
-5.69801e-08
6.94114e-07
-5.29363e-08
6.97767e-07
-4.94684e-08
7.009e-07
-4.64057e-08
-4.35398e-08
7.0354e-07
7.67544e-07
-5.08392e-08
7.57249e-07
-1.07964e-07
7.5087e-07
-1.30758e-07
7.48422e-07
-1.35353e-07
7.48894e-07
-1.30856e-07
7.51178e-07
-1.22344e-07
7.54482e-07
-1.12526e-07
7.58321e-07
-1.0274e-07
7.62394e-07
-9.35549e-08
7.66514e-07
-8.51986e-08
7.70563e-07
-7.77395e-08
7.74461e-07
-7.11628e-08
7.78151e-07
-6.54123e-08
7.81579e-07
-6.04089e-08
7.84698e-07
-5.60547e-08
7.87462e-07
-5.22329e-08
7.89855e-07
-4.87992e-08
-4.55937e-08
7.9191e-07
7.57496e-07
-4.29548e-08
7.47108e-07
-9.75754e-08
7.38644e-07
-1.22294e-07
7.33084e-07
-1.29793e-07
7.30116e-07
-1.27888e-07
7.29015e-07
-1.21243e-07
7.29146e-07
-1.12657e-07
7.30064e-07
-1.03659e-07
7.31469e-07
-9.496e-08
7.33159e-07
-8.68882e-08
7.34994e-07
-7.95752e-08
7.36877e-07
-7.30456e-08
7.38732e-07
-6.72672e-08
7.40498e-07
-6.21748e-08
7.42124e-07
-5.76811e-08
7.43574e-07
-5.36826e-08
7.44827e-07
-5.00516e-08
-4.66964e-08
7.45929e-07
1.00243e-06
-3.48286e-08
9.89274e-07
-8.44238e-08
9.76791e-07
-1.09811e-07
9.66802e-07
-1.19805e-07
9.5958e-07
-1.20665e-07
9.54673e-07
-1.16336e-07
9.51501e-07
-1.09485e-07
9.4957e-07
-1.01728e-07
9.48515e-07
-9.39045e-08
9.4807e-07
-8.64439e-08
9.48043e-07
-7.95476e-08
9.48287e-07
-7.32897e-08
9.48691e-07
-6.76707e-08
9.49165e-07
-6.26489e-08
9.4964e-07
-5.81561e-08
9.50067e-07
-5.41092e-08
9.50425e-07
-5.04095e-08
-4.70055e-08
9.50734e-07
1.32759e-06
-2.69276e-08
1.31216e-06
-6.89923e-08
1.2955e-06
-9.31498e-08
1.28028e-06
-1.04588e-07
1.26752e-06
-1.07901e-07
1.25726e-06
-1.06073e-07
1.24915e-06
-1.01375e-07
1.24276e-06
-9.53428e-08
1.23772e-06
-8.88653e-08
1.23372e-06
-8.24434e-08
1.23052e-06
-7.63417e-08
1.22791e-06
-7.06847e-08
1.22575e-06
-6.55131e-08
1.22392e-06
-6.08163e-08
1.22232e-06
-5.65541e-08
1.22088e-06
-5.26702e-08
1.21957e-06
-4.90999e-08
-4.58158e-08
1.21838e-06
1.75354e-06
-1.95393e-08
1.73672e-06
-5.21643e-08
1.71639e-06
-7.2823e-08
1.69581e-06
-8.40032e-08
1.67667e-06
-8.87683e-08
1.65971e-06
-8.9112e-08
1.64501e-06
-8.66747e-08
1.63238e-06
-8.2708e-08
1.62153e-06
-7.80175e-08
1.61219e-06
-7.30992e-08
1.60409e-06
-6.82438e-08
1.59701e-06
-6.36115e-08
1.59078e-06
-5.92784e-08
1.58523e-06
-5.52671e-08
1.58025e-06
-5.15686e-08
1.57573e-06
-4.8157e-08
1.57163e-06
-4.50001e-08
-4.20908e-08
1.56791e-06
2.29918e-06
-1.26558e-08
2.28171e-06
-3.46958e-08
2.25865e-06
-4.97551e-08
2.23334e-06
-5.86997e-08
2.20793e-06
-6.33552e-08
2.18372e-06
-6.49061e-08
2.16135e-06
-6.43013e-08
2.141e-06
-6.23562e-08
2.12264e-06
-5.96564e-08
2.10613e-06
-5.65862e-08
2.09127e-06
-5.33921e-08
2.07789e-06
-5.02268e-08
2.06579e-06
-4.71774e-08
2.05481e-06
-4.42872e-08
2.04481e-06
-4.15714e-08
2.03568e-06
-3.90299e-08
2.02734e-06
-3.66571e-08
-3.44635e-08
2.01971e-06
2.97232e-06
-5.8921e-09
2.95429e-06
-1.66584e-08
2.92903e-06
-2.44961e-08
2.8998e-06
-2.94762e-08
2.86888e-06
-3.24285e-08
2.83786e-06
-3.38849e-08
2.80778e-06
-3.42224e-08
2.77922e-06
-3.38016e-08
2.75247e-06
-3.29083e-08
2.72763e-06
-3.1737e-08
2.70465e-06
-3.04183e-08
2.68347e-06
-2.90402e-08
2.66395e-06
-2.76592e-08
2.64597e-06
-2.63091e-08
2.62941e-06
-2.5008e-08
2.61414e-06
-2.37661e-08
2.60007e-06
-2.25905e-08
-2.15026e-08
2.58711e-06
3.74866e-06
1.58567e-09
3.72912e-06
2.8877e-09
3.70101e-06
3.60528e-09
3.66763e-06
3.90895e-09
3.63135e-06
3.84837e-09
3.59394e-06
3.53318e-09
3.55664e-06
3.06848e-09
3.52032e-06
2.51803e-09
3.4855e-06
1.92111e-09
3.45245e-06
1.3074e-09
3.42133e-06
6.99185e-10
3.39218e-06
1.11772e-10
3.36497e-06
-4.44493e-10
3.33962e-06
-9.62916e-10
3.31605e-06
-1.43999e-09
3.29416e-06
-1.87587e-09
3.27385e-06
-2.27518e-09
-2.65424e-09
3.255e-06
4.53044e-06
8.65248e-09
4.5078e-06
2.55298e-08
4.47414e-06
3.72645e-08
4.43385e-06
4.42002e-08
4.39001e-06
4.76842e-08
4.34484e-06
4.87018e-08
4.29992e-06
4.7991e-08
4.25627e-06
4.61625e-08
4.21452e-06
4.36729e-08
4.17499e-06
4.08354e-08
4.13784e-06
3.78583e-08
4.10307e-06
3.488e-08
4.07063e-06
3.1988e-08
4.04044e-06
2.92351e-08
4.01235e-06
2.66498e-08
3.98623e-06
2.42442e-08
3.96193e-06
2.20172e-08
1.99486e-08
3.93933e-06
3.1144e-06
1.81765e-08
3.09195e-06
4.79767e-08
3.06217e-06
6.70467e-08
3.02906e-06
7.73111e-08
2.99522e-06
8.15221e-08
2.96229e-06
8.16255e-08
2.9312e-06
7.9089e-08
2.90233e-06
7.50301e-08
2.87579e-06
7.02065e-08
2.85153e-06
6.50981e-08
2.82939e-06
5.99968e-08
2.8092e-06
5.50738e-08
2.79076e-06
5.04242e-08
2.7739e-06
4.60925e-08
2.75846e-06
4.20937e-08
2.74428e-06
3.8423e-08
2.73124e-06
3.50642e-08
3.1989e-08
2.7192e-06
2.47122e-06
2.87232e-08
2.4473e-06
7.1894e-08
2.41845e-06
9.59001e-08
2.38925e-06
1.06504e-07
2.36196e-06
1.08812e-07
2.33752e-06
1.06065e-07
2.31611e-06
1.00505e-07
2.29749e-06
9.36475e-08
2.28132e-06
8.63759e-08
2.26724e-06
7.91817e-08
2.25491e-06
7.23229e-08
2.24406e-06
6.5926e-08
2.23444e-06
6.00387e-08
2.22587e-06
5.46646e-08
2.21818e-06
4.97829e-08
2.21124e-06
4.5361e-08
2.20495e-06
4.13603e-08
3.77369e-08
2.1992e-06
1.90371e-06
4.17348e-08
1.87976e-06
9.584e-08
1.85551e-06
1.20154e-07
1.83455e-06
1.27464e-07
1.8177e-06
1.25657e-07
1.80468e-06
1.19081e-07
1.7948e-06
1.1039e-07
1.78731e-06
1.01132e-07
1.78163e-06
9.20622e-08
1.77728e-06
8.35244e-08
1.77394e-06
7.56639e-08
1.77135e-06
6.85189e-08
1.76932e-06
6.2071e-08
1.76771e-06
5.62753e-08
1.76641e-06
5.10753e-08
1.76536e-06
4.64126e-08
1.76449e-06
4.22301e-08
3.84728e-08
1.76376e-06
1.42687e-06
5.67537e-08
1.40671e-06
1.16005e-07
1.39151e-06
1.35349e-07
1.3821e-06
1.36874e-07
1.37745e-06
1.30307e-07
1.37619e-06
1.20338e-07
1.37712e-06
1.09466e-07
1.37937e-06
9.88786e-08
1.3824e-06
8.90331e-08
1.38584e-06
8.00814e-08
1.38946e-06
7.20422e-08
1.39311e-06
6.48692e-08
1.3967e-06
5.84891e-08
1.40015e-06
5.28199e-08
1.40344e-06
4.77816e-08
1.40656e-06
4.32983e-08
1.40948e-06
3.93043e-08
3.57395e-08
1.41222e-06
1.04091e-06
7.15836e-08
1.02913e-06
1.27789e-07
1.02592e-06
1.38556e-07
1.02886e-06
1.33937e-07
1.03557e-06
1.23596e-07
1.04419e-06
1.11714e-07
1.05356e-06
1.00103e-07
1.06303e-06
8.94061e-08
1.07227e-06
7.97963e-08
1.08108e-06
7.12661e-08
1.08938e-06
6.37386e-08
1.09714e-06
5.71117e-08
1.10435e-06
5.128e-08
1.11103e-06
4.61434e-08
1.1172e-06
4.16111e-08
1.12289e-06
3.76028e-08
1.12815e-06
3.40508e-08
3.0898e-08
1.13299e-06
7.38437e-07
8.2773e-08
7.38375e-07
1.27851e-07
7.47569e-07
1.29362e-07
7.61301e-07
1.20205e-07
7.76751e-07
1.08146e-07
7.92312e-07
9.61532e-08
8.07251e-07
8.51643e-08
8.2127e-07
7.53863e-08
8.34268e-07
6.67989e-08
8.46232e-07
5.93016e-08
8.57202e-07
5.27683e-08
8.6724e-07
4.70737e-08
8.76417e-07
4.21029e-08
8.84806e-07
3.77544e-08
8.92478e-07
3.39395e-08
8.99498e-07
3.05822e-08
9.05929e-07
2.76198e-08
2.50044e-08
9.11822e-07
5.08369e-07
8.65232e-08
5.20992e-07
1.15229e-07
5.40656e-07
1.09698e-07
5.62146e-07
9.87153e-08
5.8309e-07
8.7202e-08
6.02625e-07
7.66179e-08
6.20537e-07
6.72527e-08
6.36832e-07
5.90909e-08
6.51602e-07
5.20294e-08
6.64967e-07
4.59359e-08
6.77059e-07
4.06766e-08
6.88004e-07
3.61283e-08
6.97922e-07
3.2185e-08
7.06922e-07
2.87551e-08
7.151e-07
2.57614e-08
7.22544e-07
2.31379e-08
7.29333e-07
2.0831e-08
1.88067e-08
7.3553e-07
3.38165e-07
7.978e-08
3.6191e-07
9.14828e-08
3.88628e-07
8.29806e-08
4.1443e-07
7.29133e-08
4.37927e-07
6.37048e-08
4.59022e-07
5.5523e-08
4.77906e-07
4.83684e-08
4.94791e-07
4.22066e-08
5.09889e-07
3.69317e-08
5.23403e-07
3.24212e-08
5.35521e-07
2.85588e-08
5.46407e-07
2.52424e-08
5.56208e-07
2.23842e-08
5.65051e-07
1.99117e-08
5.73049e-07
1.77641e-08
5.80297e-07
1.58897e-08
5.86883e-07
1.42453e-08
1.28143e-08
5.92874e-07
2.15304e-07
6.10486e-08
2.46537e-07
6.02498e-08
2.76321e-07
5.31965e-08
3.03346e-07
4.58876e-08
3.27083e-07
3.99685e-08
3.47956e-07
3.46499e-08
3.66372e-07
2.99529e-08
3.82642e-07
2.59364e-08
3.97045e-07
2.25291e-08
4.09826e-07
1.96394e-08
4.212e-07
1.71844e-08
4.31352e-07
1.50915e-08
4.40437e-07
1.32993e-08
4.48591e-07
1.17579e-08
4.55929e-07
1.04264e-08
4.62549e-07
9.26995e-09
4.6854e-07
8.25347e-09
7.37954e-09
4.73975e-07
1.27955e-07
3.10771e-08
1.6095e-07
2.72548e-08
1.89668e-07
2.44779e-08
2.15213e-07
2.03429e-08
2.37361e-07
1.78208e-08
2.56631e-07
1.53797e-08
2.73439e-07
1.31456e-08
2.88124e-07
1.12509e-08
3.00993e-07
9.66063e-09
3.12308e-07
8.32425e-09
3.22292e-07
7.19999e-09
3.31133e-07
6.25078e-09
3.38988e-07
5.44491e-09
3.45988e-07
4.75773e-09
3.52246e-07
4.16887e-09
3.57854e-07
3.6619e-09
3.62896e-07
3.21215e-09
2.81945e-09
3.67455e-07
5.86619e-08
8.59167e-08
1.10395e-07
1.30738e-07
1.48558e-07
1.63938e-07
1.77084e-07
1.88335e-07
1.97995e-07
2.06319e-07
2.13519e-07
2.1977e-07
2.25215e-07
2.29973e-07
2.34142e-07
2.37804e-07
2.41016e-07
2.43835e-07
6.98665e-09
-6.98414e-09
1.62253e-08
-9.23513e-09
2.29803e-08
-6.75126e-09
2.59972e-08
-3.01423e-09
2.52666e-08
7.34102e-10
2.13521e-08
3.9166e-09
1.50128e-08
6.3427e-09
6.88585e-09
8.12848e-09
-2.62656e-09
9.51569e-09
-1.34028e-08
1.07765e-08
-2.5416e-08
1.20158e-08
-3.86407e-08
1.32237e-08
-5.30383e-08
1.43998e-08
-6.8551e-08
1.55105e-08
-8.5064e-08
1.65153e-08
-1.02448e-07
1.73808e-08
-1.20531e-07
1.80863e-08
-1.39156e-07
1.86212e-08
-1.58136e-07
1.89833e-08
-1.77318e-07
1.91769e-08
-1.96527e-07
1.92131e-08
-2.1564e-07
1.91073e-08
-2.34513e-07
1.88758e-08
-2.53053e-07
1.85339e-08
-2.71149e-07
1.80994e-08
-2.88745e-07
1.75886e-08
-3.05758e-07
1.70174e-08
-3.22163e-07
1.63987e-08
-3.37904e-07
1.57449e-08
-3.52975e-07
1.50654e-08
-3.67338e-07
1.43689e-08
-3.81004e-07
1.36609e-08
-3.93944e-07
1.29469e-08
-4.06178e-07
1.22295e-08
-4.1768e-07
1.15119e-08
-4.28477e-07
1.07941e-08
-4.38544e-07
1.00775e-08
-4.47909e-07
9.3605e-09
-4.56542e-07
8.64369e-09
-4.64472e-07
7.92456e-09
-4.71666e-07
7.20313e-09
-4.78148e-07
6.47628e-09
-4.83883e-07
5.7437e-09
-4.88889e-07
5.00164e-09
-4.93129e-07
4.24922e-09
-4.96614e-07
3.48163e-09
-4.99301e-07
2.69735e-09
-5.01197e-07
1.89181e-09
-5.02254e-07
1.06832e-09
-5.02496e-07
2.37623e-10
-5.0193e-07
-5.56541e-10
-5.00634e-07
-1.30136e-09
-4.98606e-07
-2.01949e-09
-4.95885e-07
-2.72518e-09
-4.92452e-07
-3.42212e-09
-4.88339e-07
-4.11483e-09
-4.83526e-07
-4.80116e-09
-4.78043e-07
-5.48251e-09
-4.71874e-07
-6.15526e-09
-4.6505e-07
-6.82034e-09
-4.57562e-07
-7.47354e-09
-4.49441e-07
-8.11514e-09
-4.40684e-07
-8.74101e-09
-4.31324e-07
-9.35131e-09
-4.21366e-07
-9.94201e-09
-4.10843e-07
-1.05132e-08
-3.99767e-07
-1.10614e-08
-3.88174e-07
-1.15828e-08
-3.76079e-07
-1.20825e-08
-3.63507e-07
-1.25624e-08
-3.50493e-07
-1.30023e-08
-3.37073e-07
-1.34098e-08
-3.23273e-07
-1.37893e-08
-3.09123e-07
-1.4137e-08
-2.9466e-07
-1.44512e-08
-2.79911e-07
-1.47315e-08
-2.64919e-07
-1.49775e-08
-2.49709e-07
-1.5189e-08
-2.34328e-07
-1.53667e-08
-2.18795e-07
-1.55096e-08
-2.03159e-07
-1.56195e-08
-1.87439e-07
-1.56956e-08
-1.71685e-07
-1.57407e-08
-1.55906e-07
-1.57531e-08
-1.40156e-07
-1.57368e-08
-1.24442e-07
-1.56902e-08
-1.08817e-07
-1.56181e-08
-9.32905e-08
-1.55185e-08
-7.79018e-08
-1.53952e-08
-6.26676e-08
-1.52506e-08
-4.75941e-08
-1.50838e-08
-3.27042e-08
-1.48938e-08
-1.80243e-08
-1.46782e-08
-3.58606e-09
-1.4435e-08
1.06337e-08
-1.42141e-08
2.46334e-08
-1.39937e-08
3.83624e-08
-1.37209e-08
5.17931e-08
-1.34219e-08
6.49105e-08
-1.3106e-08
7.77007e-08
-1.27773e-08
9.01562e-08
-1.24394e-08
1.0227e-07
-1.20934e-08
1.14036e-07
-1.17427e-08
1.25452e-07
-1.13867e-08
1.36509e-07
-1.10293e-08
1.47207e-07
-1.06691e-08
1.57541e-07
-1.03103e-08
1.67514e-07
-9.95116e-09
1.77125e-07
-9.59446e-09
1.86379e-07
-9.23874e-09
1.95277e-07
-8.88896e-09
2.03828e-07
-8.54176e-09
2.12033e-07
-8.19997e-09
2.19899e-07
-7.86123e-09
2.27428e-07
-7.529e-09
2.3463e-07
-7.20103e-09
2.41508e-07
-6.88034e-09
2.4807e-07
-6.5644e-09
2.54318e-07
-6.25537e-09
2.60264e-07
-5.95167e-09
2.65916e-07
-5.65552e-09
2.71284e-07
-5.36538e-09
2.7637e-07
-5.08359e-09
2.81184e-07
-4.80852e-09
2.85728e-07
-4.54275e-09
2.90013e-07
-4.2839e-09
2.94045e-07
-4.03409e-09
2.97834e-07
-3.7914e-09
3.01387e-07
-3.55776e-09
3.04714e-07
-3.33082e-09
3.07819e-07
-3.1123e-09
3.10714e-07
-2.90027e-09
3.13403e-07
-2.69618e-09
3.15895e-07
-2.49829e-09
3.18195e-07
-2.30869e-09
3.20313e-07
-2.12609e-09
3.22255e-07
-1.95196e-09
3.2403e-07
-1.78469e-09
3.25643e-07
-1.6253e-09
3.27101e-07
-1.47257e-09
3.28414e-07
-1.32716e-09
3.29589e-07
-1.18814e-09
3.30633e-07
-1.05549e-09
3.31552e-07
-9.28839e-10
3.32352e-07
-8.08582e-10
3.33038e-07
-6.94389e-10
3.33618e-07
-5.86498e-10
3.34096e-07
-4.84485e-10
3.34478e-07
-3.88372e-10
3.3477e-07
-2.97608e-10
3.34977e-07
-2.12157e-10
3.35103e-07
-1.31186e-10
3.35152e-07
-5.35413e-11
3.35122e-07
2.53712e-11
3.35014e-07
1.03627e-10
3.34834e-07
1.74792e-10
3.34592e-07
2.38107e-10
3.34293e-07
2.95305e-10
3.33941e-07
3.47822e-10
3.3354e-07
3.97204e-10
3.33093e-07
4.44543e-10
3.32599e-07
4.91098e-10
3.32058e-07
5.38107e-10
3.31468e-07
5.87269e-10
3.30825e-07
6.4016e-10
3.30124e-07
6.98971e-10
3.29356e-07
7.66692e-10
3.28507e-07
8.47076e-10
3.27561e-07
9.45354e-10
3.26492e-07
1.06757e-09
3.25269e-07
1.22239e-09
3.2384e-07
1.42764e-09
3.22124e-07
1.71512e-09
3.19999e-07
2.12486e-09
3.17277e-07
2.72212e-09
3.13647e-07
3.63045e-09
3.08545e-07
5.10121e-09
3.00993e-07
7.55277e-09
2.88827e-07
1.21657e-08
2.05276e-08
2.683e-07
5.54578e-09
-1.25281e-08
7.20083e-09
-1.0888e-08
4.97542e-09
-4.52372e-09
-9.13555e-11
2.05413e-09
-7.41306e-09
8.05761e-09
-1.67667e-08
1.32715e-08
-2.80591e-08
1.76367e-08
-4.11582e-08
2.12285e-08
-5.58582e-08
2.42169e-08
-7.1864e-08
2.67826e-08
-8.88951e-08
2.90479e-08
-1.06736e-07
3.10642e-08
-1.25174e-07
3.2838e-08
-1.4402e-07
3.43558e-08
-1.63101e-07
3.55969e-08
-1.82263e-07
3.65415e-08
-2.01354e-07
3.71779e-08
-2.20242e-07
3.7508e-08
-2.38804e-07
3.75464e-08
-2.56945e-07
3.73166e-08
-2.74579e-07
3.68477e-08
-2.91645e-07
3.61715e-08
-3.08088e-07
3.532e-08
-3.23881e-07
3.43239e-08
-3.38992e-07
3.32121e-08
-3.53416e-07
3.20103e-08
-3.67138e-07
3.07414e-08
-3.80167e-07
2.94244e-08
-3.92495e-07
2.80752e-08
-4.04138e-07
2.67062e-08
-4.15094e-07
2.5327e-08
-4.25379e-07
2.39445e-08
-4.34993e-07
2.25637e-08
-4.43952e-07
2.11873e-08
-4.52253e-07
1.9817e-08
-4.59912e-07
1.84526e-08
-4.66925e-07
1.70937e-08
-4.73304e-07
1.57387e-08
-4.79043e-07
1.4386e-08
-4.84153e-07
1.30333e-08
-4.88625e-07
1.16785e-08
-4.92469e-07
1.03188e-08
-4.95675e-07
8.95242e-09
-4.98251e-07
7.57706e-09
-5.0019e-07
6.19195e-09
-5.01505e-07
4.797e-09
-5.02198e-07
3.39471e-09
-5.02295e-07
1.98943e-09
-5.01812e-07
5.88613e-10
-5.00772e-07
-8.01091e-10
-4.99143e-07
-2.18197e-09
-4.96884e-07
-3.56007e-09
-4.93965e-07
-4.93487e-09
-4.90383e-07
-6.3063e-09
-4.86128e-07
-7.67314e-09
-4.81206e-07
-9.03445e-09
-4.75615e-07
-1.03876e-08
-4.69363e-07
-1.17303e-08
-4.62454e-07
-1.3059e-08
-4.54899e-07
-1.43708e-08
-4.46704e-07
-1.56614e-08
-4.37887e-07
-1.69275e-08
-4.28456e-07
-1.81646e-08
-4.18431e-07
-1.93695e-08
-4.07828e-07
-2.05375e-08
-3.96669e-07
-2.16654e-08
-3.84974e-07
-2.27489e-08
-3.72765e-07
-2.3785e-08
-3.60069e-07
-2.47722e-08
-3.46917e-07
-2.57082e-08
-3.33329e-07
-2.65831e-08
-3.19337e-07
-2.73955e-08
-3.04973e-07
-2.81476e-08
-2.90266e-07
-2.8837e-08
-2.75248e-07
-2.94612e-08
-2.59952e-07
-3.00189e-08
-2.44411e-07
-3.05093e-08
-2.28657e-07
-3.09321e-08
-2.12727e-07
-3.12876e-08
-1.96649e-07
-3.15757e-08
-1.80461e-07
-3.17978e-08
-1.6419e-07
-3.19547e-08
-1.47873e-07
-3.20485e-08
-1.31534e-07
-3.20803e-08
-1.15208e-07
-3.20533e-08
-9.89192e-08
-3.19689e-08
-8.26997e-08
-3.1831e-08
-6.65732e-08
-3.16414e-08
-5.05679e-08
-3.14048e-08
-3.4702e-08
-3.11234e-08
-1.89881e-08
-3.08021e-08
-3.43796e-09
-3.04444e-08
1.19358e-08
-3.00496e-08
2.71181e-08
-2.96141e-08
4.20523e-08
-2.91439e-08
5.67017e-08
-2.86386e-08
7.10776e-08
-2.8091e-08
8.51711e-08
-2.75094e-08
9.8973e-08
-2.69e-08
1.12473e-07
-2.62686e-08
1.25664e-07
-2.56191e-08
1.38538e-07
-2.49554e-08
1.51092e-07
-2.42803e-08
1.63319e-07
-2.35968e-08
1.75217e-07
-2.29076e-08
1.86779e-07
-2.2215e-08
1.98007e-07
-2.15218e-08
2.08897e-07
-2.08295e-08
2.19454e-07
-2.01399e-08
2.29678e-07
-1.94543e-08
2.39571e-07
-1.87752e-08
2.49137e-07
-1.81029e-08
2.58379e-07
-1.74385e-08
2.67302e-07
-1.67823e-08
2.7591e-07
-1.61357e-08
2.84207e-07
-1.54991e-08
2.92199e-07
-1.48734e-08
2.9989e-07
-1.42586e-08
3.07285e-07
-1.36551e-08
3.14393e-07
-1.30637e-08
3.21222e-07
-1.24858e-08
3.27779e-07
-1.19208e-08
3.34068e-07
-1.13697e-08
3.40095e-07
-1.08325e-08
3.45864e-07
-1.03103e-08
3.51383e-07
-9.80235e-09
3.56657e-07
-9.30923e-09
3.61694e-07
-8.83034e-09
3.66499e-07
-8.36628e-09
3.71081e-07
-7.91596e-09
3.75444e-07
-7.47999e-09
3.79597e-07
-7.05776e-09
3.83545e-07
-6.64965e-09
3.87296e-07
-6.25485e-09
3.90856e-07
-5.87434e-09
3.94231e-07
-5.50766e-09
3.97427e-07
-5.15521e-09
4.00451e-07
-4.81641e-09
4.03306e-07
-4.49097e-09
4.06001e-07
-4.17849e-09
4.08541e-07
-3.87878e-09
4.10935e-07
-3.59141e-09
4.13186e-07
-3.31576e-09
4.15301e-07
-3.05179e-09
4.17285e-07
-2.79931e-09
4.19143e-07
-2.55836e-09
4.2088e-07
-2.3286e-09
4.225e-07
-2.10994e-09
4.24009e-07
-1.90185e-09
4.25411e-07
-1.704e-09
4.2671e-07
-1.5158e-09
4.27911e-07
-1.33672e-09
4.2902e-07
-1.16588e-09
4.30044e-07
-1.00227e-09
4.30988e-07
-8.4494e-10
4.31854e-07
-6.94596e-10
4.32641e-07
-5.52241e-10
4.33351e-07
-4.17753e-10
4.33986e-07
-2.9019e-10
4.34548e-07
-1.68177e-10
4.3504e-07
-4.99549e-11
4.35462e-07
6.65137e-11
4.35815e-07
1.83217e-10
4.36098e-07
3.02417e-10
4.36309e-07
4.2717e-10
4.36445e-07
5.61574e-10
4.36499e-07
7.10852e-10
4.36463e-07
8.82003e-10
4.36324e-07
1.08334e-09
4.36063e-07
1.32781e-09
4.35653e-07
1.63238e-09
4.35052e-07
2.02825e-09
4.34212e-07
2.555e-09
4.33057e-07
3.2796e-09
4.31467e-07
4.31245e-09
4.2927e-07
5.82775e-09
4.26157e-07
8.21486e-09
4.21754e-07
1.19567e-08
4.15235e-07
1.86851e-08
3.04198e-08
4.05344e-07
-1.1908e-09
-1.13365e-08
-7.72751e-09
-4.35025e-09
-1.65242e-08
4.27396e-09
-2.66256e-08
1.2156e-08
-3.77825e-08
1.92153e-08
-4.99745e-08
2.54639e-08
-6.32392e-08
3.0902e-08
-7.7571e-08
3.55605e-08
-9.287e-08
3.95164e-08
-1.08954e-07
4.28663e-08
-1.256e-07
4.56943e-08
-1.42592e-07
4.80555e-08
-1.59733e-07
4.9979e-08
-1.76856e-07
5.14781e-08
-1.93819e-07
5.25606e-08
-2.10515e-07
5.32364e-08
-2.26858e-07
5.35216e-08
-2.42791e-07
5.34403e-08
-2.58269e-07
5.3024e-08
-2.73262e-07
5.23092e-08
-2.87748e-07
5.13346e-08
-3.01717e-07
5.0139e-08
-3.15156e-07
4.87601e-08
-3.28066e-07
4.72323e-08
-3.4044e-07
4.55871e-08
-3.52282e-07
4.38519e-08
-3.6359e-07
4.20499e-08
-3.74367e-07
4.02006e-08
-3.8461e-07
3.83197e-08
-3.94324e-07
3.64195e-08
-4.03505e-07
3.4509e-08
-4.12156e-07
3.25948e-08
-4.20273e-07
3.06811e-08
-4.27856e-07
2.87704e-08
-4.34901e-07
2.68635e-08
-4.41409e-07
2.49601e-08
-4.47373e-07
2.3059e-08
-4.52794e-07
2.11585e-08
-4.57663e-07
1.92566e-08
-4.61981e-07
1.73508e-08
-4.6574e-07
1.54388e-08
-4.6894e-07
1.35182e-08
-4.71574e-07
1.15872e-08
-4.73641e-07
9.64415e-09
-4.75136e-07
7.68861e-09
-4.76059e-07
5.72119e-09
-4.76406e-07
3.74396e-09
-4.76176e-07
1.75991e-09
-4.75357e-07
-2.27767e-10
-4.73938e-07
-2.21825e-09
-4.71903e-07
-4.21424e-09
-4.69245e-07
-6.21723e-09
-4.65952e-07
-8.22509e-09
-4.62021e-07
-1.0235e-08
-4.57448e-07
-1.22435e-08
-4.52233e-07
-1.42469e-08
-4.46377e-07
-1.62406e-08
-4.39884e-07
-1.82202e-08
-4.32759e-07
-2.01804e-08
-4.2501e-07
-2.2116e-08
-4.16647e-07
-2.40212e-08
-4.0768e-07
-2.58902e-08
-3.98124e-07
-2.77172e-08
-3.87993e-07
-2.94962e-08
-3.77305e-07
-3.12214e-08
-3.66079e-07
-3.28872e-08
-3.54335e-07
-3.44879e-08
-3.42097e-07
-3.60187e-08
-3.2939e-07
-3.74751e-08
-3.16241e-07
-3.88537e-08
-3.02672e-07
-4.01475e-08
-2.88713e-07
-4.135e-08
-2.74395e-07
-4.24616e-08
-2.59747e-07
-4.34804e-08
-2.448e-07
-4.44032e-08
-2.29586e-07
-4.52281e-08
-2.14135e-07
-4.5954e-08
-1.98481e-07
-4.65801e-08
-1.82656e-07
-4.71067e-08
-1.66691e-07
-4.75342e-08
-1.50618e-07
-4.78642e-08
-1.34468e-07
-4.80981e-08
-1.18272e-07
-4.82386e-08
-1.02058e-07
-4.8288e-08
-8.58545e-08
-4.82501e-08
-6.96895e-08
-4.8128e-08
-5.35895e-08
-4.79263e-08
-3.75797e-08
-4.76489e-08
-2.1684e-08
-4.73017e-08
-5.91917e-09
-4.68917e-08
9.69862e-09
-4.64212e-08
2.51459e-08
-4.589e-08
4.03979e-08
-4.52988e-08
5.54353e-08
-4.46475e-08
7.02352e-08
-4.39397e-08
8.478e-08
-4.31786e-08
9.90618e-08
-4.23679e-08
1.13072e-07
-4.15137e-08
1.26801e-07
-4.06225e-08
1.40239e-07
-3.97004e-08
1.53382e-07
-3.87527e-08
1.6622e-07
-3.77842e-08
1.78751e-07
-3.6799e-08
1.90969e-07
-3.58016e-08
2.0287e-07
-3.47952e-08
2.1445e-07
-3.37841e-08
2.2571e-07
-3.27709e-08
2.36647e-07
-3.17591e-08
2.47265e-07
-3.07502e-08
2.57563e-07
-2.97475e-08
2.67545e-07
-2.87523e-08
2.77212e-07
-2.77671e-08
2.86568e-07
-2.67924e-08
2.95617e-07
-2.58303e-08
3.04364e-07
-2.48814e-08
3.12811e-07
-2.39472e-08
3.20965e-07
-2.30283e-08
3.28829e-07
-2.21256e-08
3.3641e-07
-2.12393e-08
3.43715e-07
-2.03711e-08
3.5075e-07
-1.95217e-08
3.57522e-07
-1.86916e-08
3.64036e-07
-1.78809e-08
3.70296e-07
-1.70906e-08
3.76308e-07
-1.63209e-08
3.82077e-07
-1.55719e-08
3.87611e-07
-1.48432e-08
3.92914e-07
-1.41353e-08
3.97994e-07
-1.34479e-08
4.02856e-07
-1.2781e-08
4.07508e-07
-1.21345e-08
4.11955e-07
-1.15087e-08
4.16206e-07
-1.09032e-08
4.20264e-07
-1.03177e-08
4.24138e-07
-9.75208e-09
4.27832e-07
-9.20635e-09
4.31352e-07
-8.68037e-09
4.34704e-07
-8.17398e-09
4.37892e-07
-7.68654e-09
4.40923e-07
-7.21766e-09
4.43804e-07
-6.76706e-09
4.4654e-07
-6.33409e-09
4.49137e-07
-5.91828e-09
4.51599e-07
-5.51923e-09
4.53932e-07
-5.13679e-09
4.5614e-07
-4.77065e-09
4.58229e-07
-4.4205e-09
4.60201e-07
-4.08592e-09
4.62063e-07
-3.76649e-09
4.63818e-07
-3.46161e-09
4.6547e-07
-3.1707e-09
4.67024e-07
-2.89307e-09
4.68483e-07
-2.62798e-09
4.69854e-07
-2.37485e-09
4.71139e-07
-2.13277e-09
4.72343e-07
-1.9009e-09
4.73467e-07
-1.6791e-09
4.74514e-07
-1.46695e-09
4.75486e-07
-1.26353e-09
4.76383e-07
-1.06732e-09
4.77208e-07
-8.76462e-10
4.77961e-07
-6.88545e-10
4.78643e-07
-5.00718e-10
4.79254e-07
-3.09516e-10
4.7979e-07
-1.10762e-10
4.8025e-07
1.01177e-10
4.80626e-07
3.33394e-10
4.80912e-07
5.9546e-10
4.81095e-07
8.99264e-10
4.81159e-07
1.2633e-09
4.81078e-07
1.71269e-09
4.80819e-07
2.28643e-09
4.80339e-07
3.03436e-09
4.79574e-07
4.04411e-09
4.78438e-07
5.4483e-09
4.76809e-07
7.45655e-09
4.74519e-07
1.05044e-08
4.71365e-07
1.51101e-08
4.67291e-07
2.27596e-08
3.51935e-08
4.62517e-07
-7.35059e-09
-3.9856e-09
-1.88233e-08
7.1224e-09
-3.12867e-08
1.67376e-08
-4.41354e-08
2.50048e-08
-5.72883e-08
3.23684e-08
-7.07739e-08
3.89495e-08
-8.46407e-08
4.4769e-08
-9.891e-08
4.98297e-08
-1.13546e-07
5.41522e-08
-1.28457e-07
5.77775e-08
-1.43518e-07
6.07549e-08
-1.58595e-07
6.31316e-08
-1.73564e-07
6.4948e-08
-1.88324e-07
6.62379e-08
-2.02797e-07
6.70329e-08
-2.16927e-07
6.73657e-08
-2.30678e-07
6.72726e-08
-2.44032e-07
6.67932e-08
-2.56976e-07
6.59691e-08
-2.69511e-07
6.48428e-08
-2.81632e-07
6.34565e-08
-2.93345e-07
6.18506e-08
-3.04646e-07
6.00625e-08
-3.15541e-07
5.81263e-08
-3.26025e-07
5.60724e-08
-3.36101e-07
5.39269e-08
-3.45762e-07
5.1712e-08
-3.55008e-07
4.94461e-08
-3.63832e-07
4.7144e-08
-3.7223e-07
4.4817e-08
-3.80194e-07
4.24739e-08
-3.87721e-07
4.01207e-08
-3.948e-07
3.77613e-08
-4.01428e-07
3.53977e-08
-4.07595e-07
3.30307e-08
-4.13295e-07
3.06597e-08
-4.18519e-07
2.82835e-08
-4.23262e-07
2.59001e-08
-4.27512e-07
2.35075e-08
-4.31266e-07
2.11032e-08
-4.34511e-07
1.86849e-08
-4.37244e-07
1.62504e-08
-4.39454e-07
1.37978e-08
-4.41136e-07
1.13258e-08
-4.4228e-07
8.8339e-09
-4.42881e-07
6.32226e-09
-4.42927e-07
3.79196e-09
-4.42411e-07
1.24447e-09
-4.41317e-07
-1.31868e-09
-4.39637e-07
-3.89702e-09
-4.37359e-07
-6.49031e-09
-4.34477e-07
-9.09714e-09
-4.30985e-07
-1.17144e-08
-4.26881e-07
-1.43379e-08
-4.22159e-07
-1.69626e-08
-4.16821e-07
-1.95828e-08
-4.10866e-07
-2.21924e-08
-4.04299e-07
-2.47849e-08
-3.97124e-07
-2.7353e-08
-3.89348e-07
-2.98896e-08
-3.8098e-07
-3.2387e-08
-3.7203e-07
-3.48373e-08
-3.62512e-07
-3.72327e-08
-3.5244e-07
-3.95653e-08
-3.41831e-07
-4.18274e-08
-3.30704e-07
-4.40115e-08
-3.19079e-07
-4.61102e-08
-3.06978e-07
-4.81167e-08
-2.94426e-07
-5.00246e-08
-2.81447e-07
-5.18291e-08
-2.68068e-07
-5.3524e-08
-2.54314e-07
-5.51009e-08
-2.40215e-07
-5.65572e-08
-2.25801e-07
-5.78912e-08
-2.11101e-07
-5.90993e-08
-1.96146e-07
-6.01791e-08
-1.80967e-07
-6.1129e-08
-1.65595e-07
-6.19482e-08
-1.5006e-07
-6.26368e-08
-1.34394e-07
-6.31956e-08
-1.18628e-07
-6.36264e-08
-1.0279e-07
-6.39315e-08
-8.69097e-08
-6.41139e-08
-7.10159e-08
-6.41772e-08
-5.51354e-08
-6.41259e-08
-3.92946e-08
-6.39644e-08
-2.35183e-08
-6.36988e-08
-7.82939e-09
-6.33355e-08
7.74845e-09
-6.28803e-08
2.31923e-08
-6.23366e-08
3.84802e-08
-6.17085e-08
5.35912e-08
-6.09985e-08
6.85055e-08
-6.02091e-08
8.32058e-08
-5.93434e-08
9.76767e-08
-5.84057e-08
1.11904e-07
-5.74015e-08
1.25879e-07
-5.63369e-08
1.3959e-07
-5.52192e-08
1.53029e-07
-5.40555e-08
1.66189e-07
-5.2853e-08
1.79062e-07
-5.16176e-08
1.91643e-07
-5.03556e-08
2.03927e-07
-4.9072e-08
2.15909e-07
-4.77725e-08
2.27585e-07
-4.64614e-08
2.38955e-07
-4.51439e-08
2.50015e-07
-4.38233e-08
2.60767e-07
-4.25041e-08
2.7121e-07
-4.11885e-08
2.81347e-07
-3.98803e-08
2.91179e-07
-3.85814e-08
3.00709e-07
-3.72949e-08
3.0994e-07
-3.60218e-08
3.18876e-07
-3.4765e-08
3.2752e-07
-3.3525e-08
3.35876e-07
-3.23042e-08
3.4395e-07
-3.11032e-08