/*--------------------------------*- C++ -*----------------------------------*\
  =========                 |
  \\      /  F ield         | OpenFOAM: The Open Source CFD Toolbox
   \\    /   O peration     | Website:  https://openfoam.org
    \\  /    A nd           | Version:  7
     \\/     M anipulation  |
\*---------------------------------------------------------------------------*/
FoamFile
{
    version     2.0;
    format      ascii;
    class       volVectorField;
    location    "100";
    object      U;
}
// * * * * * * * * * * * * * * * * * * * * * * * * * * * * * * * * * * * * * //

dimensions      [0 1 -1 0 0 0 0];

internalField   nonuniform List<vector> 
12225
(
(0.0792895 -0.0692425 0)
(0.149123 -0.0159578 0)
(0.200757 -0.0094591 0)
(0.247466 -0.00839216 0)
(0.288523 -0.00758451 0)
(0.323985 -0.00661586 0)
(0.354003 -0.00573232 0)
(0.379395 -0.00498766 0)
(0.401031 -0.00436778 0)
(0.41961 -0.00385679 0)
(0.43571 -0.00344066 0)
(0.449828 -0.0031118 0)
(0.462428 -0.00287365 0)
(0.473976 -0.00275116 0)
(0.485172 -0.00281381 0)
(0.496945 -0.00334104 0)
(0.512893 -0.00472115 0)
(0.535445 -0.0144698 0)
(0.204528 -0.0223796 0)
(0.255383 -0.0233946 0)
(0.323177 -0.020391 0)
(0.380038 -0.0182161 0)
(0.428456 -0.0164465 0)
(0.470658 -0.0146107 0)
(0.507224 -0.0129502 0)
(0.538959 -0.0115249 0)
(0.566664 -0.0103207 0)
(0.591007 -0.00931671 0)
(0.612557 -0.00849336 0)
(0.631813 -0.00784382 0)
(0.649241 -0.00738386 0)
(0.665301 -0.00717683 0)
(0.68059 -0.00739241 0)
(0.695797 -0.00854069 0)
(0.712543 -0.0120407 0)
(0.729307 -0.0221745 0)
(0.296252 -0.031312 0)
(0.338007 -0.0373605 0)
(0.405669 -0.0334043 0)
(0.461929 -0.0300345 0)
(0.509857 -0.0271359 0)
(0.551906 -0.024351 0)
(0.588714 -0.0218591 0)
(0.621016 -0.0197012 0)
(0.649504 -0.0178608 0)
(0.674763 -0.0163122 0)
(0.697305 -0.015032 0)
(0.717585 -0.014014 0)
(0.736022 -0.0132833 0)
(0.753016 -0.012928 0)
(0.769016 -0.0131671 0)
(0.784394 -0.014558 0)
(0.79954 -0.0183395 0)
(0.812187 -0.0268512 0)
(0.391169 -0.0438221 0)
(0.422159 -0.0520653 0)
(0.482212 -0.0478442 0)
(0.534118 -0.0433404 0)
(0.57923 -0.0392374 0)
(0.619213 -0.0354324 0)
(0.654537 -0.0320376 0)
(0.685817 -0.0290797 0)
(0.713625 -0.0265403 0)
(0.738451 -0.0243888 0)
(0.760738 -0.0225978 0)
(0.780881 -0.0211607 0)
(0.799242 -0.0201072 0)
(0.81615 -0.0195357 0)
(0.831915 -0.0196701 0)
(0.846677 -0.0209946 0)
(0.86031 -0.0243412 0)
(0.87076 -0.0305103 0)
(0.492395 -0.0514195 0)
(0.512531 -0.064777 0)
(0.561539 -0.0618841 0)
(0.606973 -0.0567572 0)
(0.647782 -0.0516395 0)
(0.68454 -0.0469075 0)
(0.717383 -0.0426638 0)
(0.746743 -0.0389392 0)
(0.773052 -0.0357191 0)
(0.796696 -0.0329715 0)
(0.818037 -0.030668 0)
(0.837404 -0.0288008 0)
(0.855094 -0.0273991 0)
(0.87136 -0.0265557 0)
(0.886402 -0.0264634 0)
(0.900213 -0.027475 0)
(0.912532 -0.0300357 0)
(0.921663 -0.0341323 0)
(0.600359 -0.054503 0)
(0.610308 -0.0745737 0)
(0.646751 -0.0742334 0)
(0.684325 -0.0692651 0)
(0.719624 -0.0635392 0)
(0.752217 -0.0581023 0)
(0.781791 -0.0531537 0)
(0.808535 -0.0487637 0)
(0.832717 -0.0449355 0)
(0.854611 -0.0416432 0)
(0.874487 -0.038861 0)
(0.892601 -0.0365806 0)
(0.90918 -0.0348265 0)
(0.924407 -0.0336741 0)
(0.938395 -0.0332653 0)
(0.951062 -0.0338168 0)
(0.962171 -0.035491 0)
(0.970376 -0.0379459 0)
(0.714675 -0.0541824 0)
(0.715662 -0.0810948 0)
(0.739268 -0.0841766 0)
(0.767976 -0.080219 0)
(0.796814 -0.0744264 0)
(0.824414 -0.0685907 0)
(0.850023 -0.0631411 0)
(0.873536 -0.0582294 0)
(0.895043 -0.0538978 0)
(0.91469 -0.0501376 0)
(0.932651 -0.0469309 0)
(0.949099 -0.0442706 0)
(0.964193 -0.0421738 0)
(0.97805 -0.0406928 0)
(0.99072 -0.0399143 0)
(1.00209 -0.0399406 0)
(1.01201 -0.040756 0)
(1.01941 -0.0419348 0)
(0.834396 -0.0513058 0)
(0.828066 -0.0841846 0)
(0.839617 -0.0912175 0)
(0.858789 -0.0890539 0)
(0.880503 -0.083816 0)
(0.902394 -0.0779576 0)
(0.92341 -0.0722633 0)
(0.943134 -0.0670141 0)
(0.961462 -0.0623147 0)
(0.978406 -0.0581877 0)
(0.994033 -0.0546302 0)
(1.00844 -0.0516397 0)
(1.02171 -0.0492261 0)
(1.0339 -0.0474175 0)
(1.04501 -0.0462517 0)
(1.05494 -0.0457471 0)
(1.06361 -0.0457916 0)
(1.07016 -0.0459882 0)
(0.958154 -0.0466525 0)
(0.946499 -0.0839034 0)
(0.947509 -0.0949992 0)
(0.957081 -0.0952613 0)
(0.971211 -0.0911824 0)
(0.986863 -0.0857436 0)
(1.00275 -0.0801077 0)
(1.01818 -0.0747466 0)
(1.03287 -0.0698484 0)
(1.04669 -0.0654826 0)
(1.05959 -0.061671 0)
(1.0716 -0.05842 0)
(1.08272 -0.055735 0)
(1.09297 -0.0536245 0)
(1.10231 -0.0520882 0)
(1.11064 -0.0510909 0)
(1.11796 -0.0504825 0)
(1.12351 -0.0499353 0)
(1.08433 -0.0409868 0)
(1.06952 -0.0805622 0)
(1.06192 -0.0953696 0)
(1.06259 -0.0984192 0)
(1.06893 -0.0960202 0)
(1.07805 -0.0914559 0)
(1.08838 -0.0862215 0)
(1.09912 -0.0810106 0)
(1.10977 -0.0761154 0)
(1.12008 -0.0716671 0)
(1.12991 -0.0677221 0)
(1.13918 -0.0643026 0)
(1.14786 -0.061415 0)
(1.15591 -0.0590545 0)
(1.16326 -0.0571969 0)
(1.16983 -0.0557791 0)
(1.17564 -0.0546497 0)
(1.18001 -0.0535554 0)
(1.21121 -0.0349638 0)
(1.19522 -0.0746994 0)
(1.18127 -0.092421 0)
(1.17423 -0.0982692 0)
(1.17311 -0.0979161 0)
(1.17565 -0.0946276 0)
(1.18023 -0.0901446 0)
(1.18597 -0.0853625 0)
(1.19226 -0.0806956 0)
(1.19874 -0.0763455 0)
(1.20518 -0.0724121 0)
(1.21144 -0.06894 0)
(1.21742 -0.0659427 0)
(1.22302 -0.0634114 0)
(1.22818 -0.0613108 0)
(1.2328 -0.05957 0)
(1.23695 -0.0580566 0)
(1.23994 -0.0565835 0)
(1.3266 -0.0294633 0)
(1.31091 -0.067684 0)
(1.29333 -0.0870507 0)
(1.28064 -0.09513 0)
(1.27344 -0.0967485 0)
(1.27021 -0.094888 0)
(1.26957 -0.0913693 0)
(1.27062 -0.0872245 0)
(1.27274 -0.0829745 0)
(1.2755 -0.0788886 0)
(1.27862 -0.0751113 0)
(1.28189 -0.0717128 0)
(1.28518 -0.0687189 0)
(1.28835 -0.0661241 0)
(1.29133 -0.063894 0)
(1.29402 -0.0619625 0)
(1.29648 -0.0602179 0)
(1.298 -0.0585423 0)
(1.43841 -0.0243034 0)
(1.42407 -0.0597879 0)
(1.40472 -0.0798024 0)
(1.3878 -0.0896023 0)
(1.3755 -0.0930629 0)
(1.36705 -0.0927133 0)
(1.36145 -0.0903178 0)
(1.35792 -0.0869857 0)
(1.35588 -0.0833157 0)
(1.35488 -0.0796418 0)
(1.3546 -0.0761501 0)
(1.35479 -0.0729383 0)
(1.35529 -0.0700483 0)
(1.35594 -0.0674839 0)
(1.35665 -0.0652178 0)
(1.3573 -0.0631957 0)
(1.35795 -0.0613286 0)
(1.35791 -0.0595626 0)
(1.56063 -0.0191687 0)
(1.54855 -0.0501742 0)
(1.52917 -0.0696001 0)
(1.50932 -0.0804825 0)
(1.49265 -0.0856203 0)
(1.47924 -0.0869136 0)
(1.46857 -0.0859043 0)
(1.46016 -0.0836719 0)
(1.45354 -0.0808499 0)
(1.44831 -0.0778268 0)
(1.44414 -0.074829 0)
(1.44078 -0.0719837 0)
(1.43802 -0.0693539 0)
(1.43571 -0.0669587 0)
(1.43372 -0.0647855 0)
(1.43195 -0.0627981 0)
(1.43042 -0.0609378 0)
(1.42846 -0.0591889 0)
(1.68899 -0.0143487 0)
(1.67946 -0.0393637 0)
(1.66171 -0.0566328 0)
(1.64081 -0.0674293 0)
(1.62119 -0.073558 0)
(1.60378 -0.0762808 0)
(1.58857 -0.0767203 0)
(1.57545 -0.0757736 0)
(1.56421 -0.0740462 0)
(1.55455 -0.0719306 0)
(1.54621 -0.0696726 0)
(1.53895 -0.0674219 0)
(1.53258 -0.0652624 0)
(1.52695 -0.0632321 0)
(1.5219 -0.0613377 0)
(1.51735 -0.0595653 0)
(1.51328 -0.0578883 0)
(1.50906 -0.0563126 0)
(1.81513 -0.0098915 0)
(1.8078 -0.0280152 0)
(1.7926 -0.0415158 0)
(1.77247 -0.0507025 0)
(1.75178 -0.0566393 0)
(1.73204 -0.0600386 0)
(1.71361 -0.0615516 0)
(1.69672 -0.0617935 0)
(1.68144 -0.06123 0)
(1.6677 -0.0601828 0)
(1.65535 -0.0588712 0)
(1.64424 -0.0574412 0)
(1.63421 -0.0559843 0)
(1.62513 -0.0545523 0)
(1.61688 -0.0531691 0)
(1.60935 -0.0518419 0)
(1.60251 -0.0505702 0)
(1.59584 -0.0493771 0)
(1.924 -0.00564043 0)
(1.91818 -0.0163996 0)
(1.90543 -0.0248982 0)
(1.88703 -0.031044 0)
(1.86685 -0.0353794 0)
(1.84657 -0.0382643 0)
(1.82671 -0.0399927 0)
(1.80766 -0.0408737 0)
(1.78971 -0.0411679 0)
(1.77299 -0.0410669 0)
(1.75751 -0.0407094 0)
(1.74323 -0.0401956 0)
(1.73007 -0.0395946 0)
(1.71794 -0.0389514 0)
(1.70678 -0.0382935 0)
(1.69649 -0.0376378 0)
(1.68703 -0.0369975 0)
(1.67805 -0.0364054 0)
(1.99017 -0.00127941 0)
(1.98507 -0.00413174 0)
(1.9739 -0.00665365 0)
(1.95703 -0.0086469 0)
(1.93784 -0.010229 0)
(1.91802 -0.011474 0)
(1.8981 -0.0124242 0)
(1.87847 -0.0131423 0)
(1.85951 -0.0136918 0)
(1.84144 -0.0141202 0)
(1.82439 -0.014462 0)
(1.80838 -0.0147431 0)
(1.79342 -0.0149823 0)
(1.77947 -0.0151931 0)
(1.76649 -0.0153849 0)
(1.75443 -0.015566 0)
(1.74324 -0.0157465 0)
(1.73277 -0.0159547 0)
(1.97278 0.00307248 0)
(1.96829 0.00877265 0)
(1.9575 0.0132792 0)
(1.94085 0.0165079 0)
(1.9218 0.0186743 0)
(1.90214 0.0199869 0)
(1.88243 0.020623 0)
(1.86306 0.0207438 0)
(1.84439 0.020483 0)
(1.82665 0.0199449 0)
(1.80993 0.0192098 0)
(1.79426 0.01834 0)
(1.77962 0.0173828 0)
(1.76599 0.0163742 0)
(1.7533 0.0153401 0)
(1.7415 0.014298 0)
(1.73052 0.0132559 0)
(1.72042 0.0122018 0)
(1.85389 0.00815064 0)
(1.84655 0.0231803 0)
(1.83221 0.0347069 0)
(1.81266 0.0426566 0)
(1.79198 0.0477715 0)
(1.7719 0.0506768 0)
(1.7528 0.0518943 0)
(1.73492 0.0519038 0)
(1.71841 0.0510933 0)
(1.70329 0.0497449 0)
(1.6895 0.0480587 0)
(1.67693 0.0461771 0)
(1.66546 0.0441996 0)
(1.65497 0.0421939 0)
(1.64538 0.0402053 0)
(1.63658 0.0382622 0)
(1.62848 0.0363789 0)
(1.62122 0.0345512 0)
(1.6912 0.0143003 0)
(1.68143 0.0385602 0)
(1.66397 0.0553651 0)
(1.64298 0.0657688 0)
(1.62301 0.0715062 0)
(1.60526 0.0738928 0)
(1.58962 0.0739869 0)
(1.57596 0.0726223 0)
(1.56411 0.0703869 0)
(1.55381 0.0676726 0)
(1.54483 0.06473 0)
(1.53695 0.0617188 0)
(1.52998 0.0587382 0)
(1.52379 0.0558469 0)
(1.51825 0.0530777 0)
(1.51327 0.0504465 0)
(1.50874 0.0479565 0)
(1.50483 0.0455976 0)
(1.49891 0.0216608 0)
(1.48572 0.0546186 0)
(1.46672 0.0743066 0)
(1.44785 0.0845919 0)
(1.43264 0.0887914 0)
(1.42105 0.0890882 0)
(1.41222 0.0870791 0)
(1.4055 0.0838632 0)
(1.4004 0.0800714 0)
(1.39653 0.0760768 0)
(1.39357 0.0720915 0)
(1.39128 0.0682331 0)
(1.38949 0.0645628 0)
(1.38808 0.0611086 0)
(1.38696 0.0578782 0)
(1.38604 0.0548683 0)
(1.38528 0.052068 0)
(1.38484 0.0494594 0)
(1.29314 0.0305414 0)
(1.27753 0.069793 0)
(1.26116 0.0887762 0)
(1.24939 0.0961835 0)
(1.24313 0.0972154 0)
(1.2408 0.0948 0)
(1.24086 0.0906882 0)
(1.24242 0.085905 0)
(1.24489 0.0809898 0)
(1.24787 0.07619 0)
(1.2511 0.0716296 0)
(1.2544 0.0673655 0)
(1.25768 0.0634132 0)
(1.26087 0.0597668 0)
(1.26392 0.0564101 0)
(1.26681 0.053322 0)
(1.26952 0.0504808 0)
(1.27222 0.0478628 0)
(1.08551 0.0402538 0)
(1.0709 0.08117 0)
(1.06284 0.0957637 0)
(1.06276 0.09876 0)
(1.0683 0.0964124 0)
(1.07661 0.0917179 0)
(1.08612 0.0861874 0)
(1.09599 0.0805915 0)
(1.10575 0.0752258 0)
(1.11514 0.0702109 0)
(1.12403 0.0655886 0)
(1.13236 0.0613588 0)
(1.14011 0.057502 0)
(1.1473 0.0539902 0)
(1.15395 0.0507922 0)
(1.16009 0.0478764 0)
(1.16575 0.0452151 0)
(1.17109 0.0427831 0)
(0.884966 0.04893 0)
(0.876088 0.0857901 0)
(0.881818 0.0938806 0)
(0.896528 0.0926321 0)
(0.91454 0.0878578 0)
(0.933243 0.0819352 0)
(0.95154 0.0759666 0)
(0.968842 0.0703207 0)
(0.984944 0.0651153 0)
(0.999803 0.0603785 0)
(1.01345 0.0560956 0)
(1.02594 0.0522334 0)
(1.03736 0.0487532 0)
(1.0478 0.0456146 0)
(1.05734 0.0427788 0)
(1.06607 0.0402098 0)
(1.07405 0.0378782 0)
(1.08146 0.0357617 0)
(0.69829 0.053864 0)
(0.699782 0.0819609 0)
(0.72322 0.0837451 0)
(0.753242 0.0796504 0)
(0.782634 0.0738292 0)
(0.810407 0.0678738 0)
(0.836072 0.0622939 0)
(0.859463 0.0572024 0)
(0.880678 0.0526169 0)
(0.899883 0.0485146 0)
(0.917256 0.0448536 0)
(0.932974 0.0415861 0)
(0.947208 0.038666 0)
(0.960114 0.0360505 0)
(0.971832 0.0337007 0)
(0.982491 0.0315819 0)
(0.992188 0.0296662 0)
(1.00112 0.0279391 0)
(0.530078 0.0518726 0)
(0.545267 0.0697551 0)
(0.587378 0.067365 0)
(0.630792 0.0621752 0)
(0.669577 0.0567537 0)
(0.704514 0.0516799 0)
(0.735891 0.0470572 0)
(0.763933 0.0429158 0)
(0.788988 0.0392385 0)
(0.8114 0.0359856 0)
(0.831478 0.0331093 0)
(0.849496 0.0305617 0)
(0.8657 0.0282993 0)
(0.880304 0.0262837 0)
(0.893497 0.0244811 0)
(0.905443 0.0228614 0)
(0.916269 0.0213995 0)
(0.926179 0.020092 0)
(0.382206 0.0412412 0)
(0.412768 0.0512903 0)
(0.470217 0.0478276 0)
(0.523727 0.0431671 0)
(0.569333 0.0391013 0)
(0.60934 0.0353649 0)
(0.6447 0.0319593 0)
(0.675904 0.0289357 0)
(0.703484 0.0262775 0)
(0.727927 0.0239463 0)
(0.749649 0.0219008 0)
(0.769007 0.0201014 0)
(0.786308 0.0185127 0)
(0.801815 0.0171043 0)
(0.815752 0.0158503 0)
(0.828312 0.0147272 0)
(0.839648 0.0137119 0)
(0.849971 0.0128112 0)
(0.251783 0.0300847 0)
(0.298438 0.032233 0)
(0.362142 0.0294717 0)
(0.420595 0.0261618 0)
(0.469839 0.0235858 0)
(0.512464 0.0211574 0)
(0.549734 0.0188913 0)
(0.582266 0.0168886 0)
(0.610709 0.0151473 0)
(0.635672 0.0136359 0)
(0.657663 0.012323 0)
(0.677102 0.0111787 0)
(0.694345 0.0101763 0)
(0.709689 0.00929404 0)
(0.723386 0.008514 0)
(0.735649 0.00781909 0)
(0.746643 0.00718501 0)
(0.756588 0.00662289 0)
(0.103984 0.0790069 0)
(0.181199 0.0254218 0)
(0.234656 0.0163688 0)
(0.287445 0.0138764 0)
(0.333244 0.0124476 0)
(0.372565 0.0110649 0)
(0.406414 0.00973862 0)
(0.435376 0.00857523 0)
(0.460164 0.0075794 0)
(0.481476 0.00672625 0)
(0.499876 0.0059933 0)
(0.515821 0.00536104 0)
(0.529688 0.00481202 0)
(0.541785 0.00433296 0)
(0.55237 0.00391137 0)
(0.561662 0.00354205 0)
(0.569807 0.00320101 0)
(0.576964 0.00290094 0)
(0.00286218 -0.00697226 -9.12537e-21)
(0.0106096 -0.0117103 1.07603e-20)
(0.0177944 -0.0106098 0)
(0.0223753 -0.00678928 0)
(0.0235414 -0.00238227 0)
(0.0213164 0.00144323 -8.10366e-21)
(0.0166176 0.00426163 0)
(0.0100973 0.0061951 0)
(0.00219107 0.00755538 0)
(-0.00686267 0.00861047 0)
(-0.0170189 0.00959106 6.99312e-21)
(-0.0282721 0.0106349 0)
(-0.0406061 0.011757 0)
(-0.0539803 0.0129007 0)
(-0.0683171 0.0139947 0)
(-0.0835067 0.0149837 4.07523e-21)
(-0.0994147 0.0158319 0)
(-0.115894 0.0165145 0)
(-0.132789 0.0170165 0)
(-0.149947 0.0173345 0)
(-0.167223 0.0174786 0)
(-0.184481 0.0174668 0)
(-0.201602 0.0173132 0)
(-0.218481 0.017031 2.57634e-21)
(-0.235026 0.0166393 -2.49526e-21)
(-0.251162 0.0161581 2.42515e-21)
(-0.266826 0.015606 2.36383e-21)
(-0.281972 0.0149997 0)
(-0.296561 0.0143541 0)
(-0.310566 0.0136814 -2.21607e-21)
(-0.323967 0.012992 -2.17467e-21)
(-0.336751 0.0122935 0)
(-0.348909 0.0115926 0)
(-0.360436 0.0108937 -2.06161e-21)
(-0.37133 0.0102002 0)
(-0.38159 0.0095136 0)
(-0.391218 0.00883501 1.95316e-21)
(-0.400212 0.00816313 0)
(-0.408572 0.00749671 1.87837e-21)
(-0.416296 0.00683162 3.67882e-21)
(-0.42338 0.00616427 0)
(-0.429818 0.00548875 0)
(-0.435605 0.00480141 0)
(-0.440732 0.00409824 0)
(-0.445189 0.00338004 0)
(-0.448968 0.00264898 3.13447e-21)
(-0.452053 0.00191292 3.02786e-21)
(-0.454428 0.00117988 2.91658e-21)
(-0.45607 0.00046174 0)
(-0.456963 -0.000229487 -2.67778e-21)
(-0.457061 -0.000863289 0)
(-0.456504 -0.00144188 2.40747e-21)
(-0.455286 -0.00199199 2.26078e-21)
(-0.45342 -0.00252627 0)
(-0.450913 -0.00304882 0)
(-0.44777 -0.00356342 0)
(-0.443994 -0.00406901 1.58913e-21)
(-0.439589 -0.00456693 0)
(-0.434559 -0.00505501 0)
(-0.428912 -0.00553422 0)
(-0.422654 -0.00600181 0)
(-0.415794 -0.00645842 0)
(-0.408345 -0.00690136 0)
(-0.400318 -0.00733109 0)
(-0.39173 -0.00774488 0)
(-0.382597 -0.00814298 5.36159e-22)
(-0.372937 -0.00852319 0)
(-0.362773 -0.0088769 0)
(-0.352127 -0.00922538 -1.48267e-21)
(-0.341013 -0.00957412 -1.82997e-21)
(-0.329462 -0.00987987 0)
(-0.317503 -0.0101578 2.57652e-21)
(-0.305164 -0.0104213 -2.97758e-21)
(-0.29247 -0.0106643 0)
(-0.279451 -0.0108854 3.84034e-21)
(-0.266135 -0.0110853 0)
(-0.252555 -0.011264 0)
(-0.238741 -0.0114221 -5.30424e-21)
(-0.224725 -0.0115598 0)
(-0.210537 -0.0116769 6.41023e-21)
(-0.196209 -0.0117748 0)
(-0.181772 -0.0118533 -7.63734e-21)
(-0.167257 -0.0119141 -8.3018e-21)
(-0.152691 -0.0119561 -9.00435e-21)
(-0.138103 -0.0119823 -1.94947e-20)
(-0.123522 -0.0119918 2.10702e-20)
(-0.108975 -0.0119878 0)
(-0.0944907 -0.0119687 0)
(-0.080094 -0.0119378 0)
(-0.0658097 -0.0118956 2.84339e-20)
(-0.0516481 -0.0118411 3.05995e-20)
(-0.0376233 -0.011771 -3.29253e-20)
(-0.0237607 -0.0116788 0)
(-0.0101009 -0.0115496 3.79923e-20)
(0.00338204 -0.0113396 3.91903e-20)
(0.0166992 -0.011049 3.90194e-20)
(0.0297989 -0.010727 0)
(0.0426548 -0.0103937 0)
(0.0552466 -0.0100561 0)
(0.0675599 -0.00971721 3.83202e-20)
(0.079584 -0.00937941 0)
(0.0913115 -0.00904344 0)
(0.102736 -0.00871112 -3.77893e-20)
(0.113853 -0.00838206 0)
(0.124656 -0.00805839 0)
(0.13514 -0.00773933 -3.7261e-20)
(0.145302 -0.00742709 0)
(0.155141 -0.00712067 0)
(0.164656 -0.00682052 3.67472e-20)
(0.173849 -0.00652793 3.65811e-20)
(0.182721 -0.00624719 0)
(0.191278 -0.00597367 -3.62615e-20)
(0.199522 -0.00570688 0)
(0.207456 -0.00544566 3.59577e-20)
(0.215086 -0.00519188 0)
(0.222416 -0.00494473 3.56683e-20)
(0.229449 -0.00470558 3.55291e-20)
(0.236192 -0.00447301 0)
(0.242649 -0.00424723 0)
(0.248826 -0.00402849 0)
(0.25473 -0.00381878 0)
(0.26037 -0.00361661 0)
(0.265752 -0.00342207 0)
(0.270881 -0.00323398 0)
(0.275761 -0.00305343 3.45713e-20)
(0.280397 -0.00287942 -3.44731e-20)
(0.284798 -0.0027126 0)
(0.288971 -0.00255205 0)
(0.292923 -0.00239861 0)
(0.296662 -0.00225119 0)
(0.300194 -0.00211028 -6.80827e-20)
(0.303527 -0.00197539 0)
(0.306667 -0.00184725 6.77978e-20)
(0.309619 -0.00172485 -6.76694e-20)
(0.312392 -0.00160859 0)
(0.31499 -0.00149772 0)
(0.317423 -0.00139262 0)
(0.319696 -0.00129256 6.72317e-20)
(0.321815 -0.00119777 6.71393e-20)
(0.323786 -0.00110782 0)
(0.325618 -0.00102291 6.69731e-20)
(0.327318 -0.000942699 6.68989e-20)
(0.328892 -0.000867036 -6.68301e-20)
(0.330347 -0.000795602 0)
(0.331688 -0.000728373 0)
(0.33292 -0.000665106 -6.66503e-20)
(0.33405 -0.000605766 0)
(0.335082 -0.000550158 0)
(0.336022 -0.000498214 0)
(0.336876 -0.00044967 0)
(0.337647 -0.000404433 6.64108e-20)
(0.338342 -0.00036213 6.63686e-20)
(0.338964 -0.000322379 0)
(0.339516 -0.000283405 6.6286e-20)
(0.339989 -0.000244965 0)
(0.340391 -0.000208995 0)
(0.340732 -0.000176276 6.61531e-20)
(0.341018 -0.000146766 0)
(0.341254 -0.000120317 6.60692e-20)
(0.341444 -9.65105e-05 0)
(0.341589 -7.48639e-05 0)
(0.341692 -5.46224e-05 6.59427e-20)
(0.341752 -3.50034e-05 0)
(0.341768 -1.52439e-05 6.58594e-20)
(0.341737 5.15669e-06 0)
(0.341654 2.70665e-05 0)
(0.34151 5.14303e-05 0)
(0.341295 7.93215e-05 -6.57273e-20)
(0.340994 0.000111179 0)
(0.34058 0.00014903 6.57154e-20)
(0.340033 0.000198068 0)
(0.339295 0.000264187 0)
(0.33833 0.000359767 0)
(0.336977 0.000492051 0)
(0.335158 0.000681673 0)
(0.33251 0.000968084 0)
(0.328838 0.00142322 0)
(0.322535 0.00220695 -1.36208e-19)
(0.31569 0.00354825 0)
(0.291628 0.00596231 0)
(0.00282782 -0.0210813 2.41969e-20)
(0.00646505 -0.0235241 -2.24191e-20)
(0.00596792 -0.0144583 0)
(0.00262625 -0.00386191 7.89332e-21)
(-0.00288008 0.00598043 0)
(-0.0102567 0.0142785 3.16069e-21)
(-0.0194715 0.0208433 -5.80229e-21)
(-0.0303862 0.0259204 -5.42463e-21)
(-0.0428311 0.0299482 0)
(-0.0565711 0.0333279 -4.75068e-21)
(-0.0713532 0.0363181 -2.27238e-21)
(-0.0869637 0.0390255 0)
(-0.103211 0.041459 0)
(-0.119916 0.0435841 0)
(-0.136919 0.0453494 0)
(-0.154079 0.0467066 -1.69265e-21)
(-0.171258 0.0476277 0)
(-0.188329 0.0481119 3.03325e-21)
(-0.205176 0.0481797 0)
(-0.221703 0.0478644 0)
(-0.237827 0.0472086 -2.74785e-21)
(-0.253482 0.0462595 0)
(-0.268618 0.0450659 2.62063e-21)
(-0.283197 0.0436741 -1.30485e-21)
(-0.297193 0.0421277 1.28191e-21)
(-0.310589 0.0404659 -1.2618e-21)
(-0.323376 0.0387232 -1.24386e-21)
(-0.335551 0.0369281 0)
(-0.347114 0.0351047 0)
(-0.358067 0.0332716 1.19814e-21)
(-0.368417 0.0314436 -1.15598e-21)
(-0.378169 0.0296307 0)
(-0.38733 0.0278408 0)
(-0.395906 0.0260779 1.14215e-21)
(-0.403902 0.024345 0)
(-0.411323 0.0226422 0)
(-0.418174 0.0209695 -1.09526e-21)
(-0.424457 0.0193249 0)
(-0.430174 0.0177073 1.04442e-21)
(-0.435328 0.0161133 -2.08018e-21)
(-0.439917 0.0145407 0)
(-0.44394 0.0129852 0)
(-0.447397 0.0114437 -3.88238e-21)
(-0.450286 0.00991084 -3.78782e-21)
(-0.452606 0.00838375 -3.68747e-21)
(-0.454359 0.00685862 1.79373e-21)
(-0.455551 0.00533592 -1.72791e-21)
(-0.456191 0.00381786 -5.01538e-21)
(-0.456296 0.00231435 3.22393e-21)
(-0.455882 0.000840005 1.53011e-21)
(-0.454986 -0.000581925 0)
(-0.453517 -0.00195031 -1.37776e-21)
(-0.451458 -0.00327972 1.33948e-21)
(-0.448792 -0.00457946 0)
(-0.445516 -0.00585229 0)
(-0.441625 -0.0071007 0)
(-0.437121 -0.00832274 -9.25349e-22)
(-0.432005 -0.00951807 0)
(-0.426281 -0.0106832 1.51414e-21)
(-0.419954 -0.0118172 0)
(-0.413032 -0.0129158 1.07064e-21)
(-0.405523 -0.0139776 0)
(-0.397438 -0.0149984 -5.8997e-22)
(-0.38879 -0.015977 0)
(-0.379592 -0.0169093 7.09969e-23)
(-0.369861 -0.0177944 3.30997e-23)
(-0.359616 -0.0186289 0)
(-0.348874 -0.0194121 7.81452e-22)
(-0.337656 -0.0201426 6.22147e-22)
(-0.325989 -0.0208186 7.82912e-22)
(-0.313895 -0.0214319 0)
(-0.301395 -0.021986 9.40884e-22)
(-0.288519 -0.0224834 1.29619e-21)
(-0.275294 -0.0229223 0)
(-0.261747 -0.0233017 -1.66419e-21)
(-0.247908 -0.023622 3.50855e-21)
(-0.233805 -0.0238835 0)
(-0.219469 -0.0240874 2.25601e-21)
(-0.204931 -0.0242351 0)
(-0.190219 -0.0243277 -7.8087e-21)
(-0.175364 -0.0243675 0)
(-0.160397 -0.024356 9.13172e-21)
(-0.145345 -0.0242965 3.35189e-21)
(-0.130237 -0.0241902 -3.34825e-21)
(-0.1151 -0.0240411 -7.17461e-21)
(-0.0999616 -0.0238507 7.66546e-21)
(-0.0848473 -0.0236236 0)
(-0.0697835 -0.0233616 0)
(-0.0547947 -0.0230694 0)
(-0.039903 -0.0227503 -3.0297e-20)
(-0.0251222 -0.0224065 -1.08295e-20)
(-0.0104664 -0.0220395 1.13869e-20)
(0.00406146 -0.0216515 0)
(0.0184471 -0.0212374 1.15761e-20)
(0.0326491 -0.0207756 -1.23222e-20)
(0.046626 -0.0202616 -1.25685e-20)
(0.0603649 -0.0197141 0)
(0.0738679 -0.0191468 0)
(0.087126 -0.0185674 0)
(0.100129 -0.017981 -1.34623e-20)
(0.11287 -0.0173911 0)
(0.125339 -0.0168006 2.73236e-20)
(0.137533 -0.0162118 4.17429e-20)
(0.149444 -0.0156263 -2.80677e-20)
(0.161069 -0.0150465 0)
(0.172402 -0.0144733 -1.42063e-20)
(0.18344 -0.013909 0)
(0.194182 -0.0133538 -2.93694e-20)
(0.204628 -0.0128095 1.46806e-20)
(0.214779 -0.0122756 1.48248e-20)
(0.224636 -0.0117544 0)
(0.2342 -0.0112456 4.58076e-20)
(0.243476 -0.0107502 -3.06899e-20)
(0.252465 -0.0102676 -1.55801e-20)
(0.261171 -0.00979898 0)
(0.269599 -0.00934352 -1.57829e-20)
(0.277751 -0.00890205 -4.74204e-20)
(0.285632 -0.00847351 0)
(0.293245 -0.00805869 -3.19106e-20)
(0.300596 -0.00765754 -3.20806e-20)
(0.307692 -0.00727053 -3.22463e-20)
(0.314542 -0.00689646 0)
(0.32115 -0.00653628 0)
(0.327519 -0.00618948 0)
(0.333654 -0.00585693 1.6353e-20)
(0.33956 -0.00553745 1.65629e-20)
(0.345242 -0.0052316 0)
(0.350706 -0.00493841 3.32406e-20)
(0.355958 -0.00465822 3.33584e-20)
(0.361005 -0.00438973 0)
(0.365852 -0.00413328 3.36875e-20)
(0.370504 -0.00388786 6.73727e-20)
(0.374969 -0.00365355 -3.38876e-20)
(0.379251 -0.00342943 -3.38008e-20)
(0.383357 -0.00321627 0)
(0.387293 -0.00301348 0)
(0.391065 -0.00282138 0)
(0.394676 -0.0026392 -3.43405e-20)
(0.398134 -0.0024668 3.42808e-20)
(0.401442 -0.00230352 6.88671e-20)
(0.404607 -0.00214925 -3.45766e-20)
(0.407636 -0.00200338 3.45306e-20)
(0.410534 -0.00186547 3.47226e-20)
(0.413307 -0.00173523 0)
(0.415959 -0.00161255 0)
(0.418494 -0.00149725 -3.48258e-20)
(0.420919 -0.00138911 0)
(0.423236 -0.00128789 0)
(0.42545 -0.00119325 7.01103e-20)
(0.427567 -0.0011048 0)
(0.42959 -0.00102215 3.51237e-20)
(0.431523 -0.000944834 -3.52431e-20)
(0.43337 -0.000872099 0)
(0.435137 -0.000802289 3.52621e-20)
(0.436835 -0.000735519 0)
(0.438464 -0.000673669 0)
(0.440023 -0.000617237 -3.54204e-20)
(0.441513 -0.00056567 7.08416e-20)
(0.442936 -0.000518212 -3.54687e-20)
(0.444294 -0.000473929 0)
(0.44559 -0.000431909 0)
(0.446824 -0.000391209 3.54771e-20)
(0.447996 -0.000350874 0)
(0.449107 -0.000309777 3.54933e-20)
(0.450156 -0.000266643 0)
(0.451139 -0.000219861 0)
(0.452052 -0.000167228 0)
(0.452886 -0.000105868 3.5539e-20)
(0.453629 -3.23103e-05 0)
(0.454267 5.84473e-05 -3.55518e-20)
(0.454774 0.000171246 0)
(0.455114 0.00032033 0)
(0.455241 0.000521002 7.11768e-20)
(0.455088 0.000802203 -7.12985e-20)
(0.454571 0.00120821 0)
(0.453488 0.00180566 0)
(0.451758 0.00276587 0)
(0.448471 0.00426797 2.17462e-19)
(0.445036 0.00705691 0)
(0.433882 0.0119704 -1.50679e-19)
(0.000113147 -0.0249329 -5.75833e-22)
(-0.00407105 -0.0165399 2.13726e-20)
(-0.0105738 -0.00200801 0)
(-0.0188397 0.0117587 -8.96717e-21)
(-0.02831 0.023975 0)
(-0.0387045 0.0345382 0)
(-0.0500378 0.043452 4.24923e-23)
(-0.0623483 0.0508357 2.91113e-21)
(-0.0755933 0.0569227 2.72018e-21)
(-0.0896398 0.0619758 2.62725e-21)
(-0.1043 0.0661981 0)
(-0.119372 0.0697034 0)
(-0.134672 0.0725377 -2.25834e-21)
(-0.150039 0.0747141 -4.3387e-21)
(-0.165336 0.0762375 4.17941e-21)
(-0.180451 0.0771161 0)
(-0.195298 0.0773688 3.91235e-21)
(-0.209816 0.0770319 -1.91499e-21)
(-0.223958 0.0761587 0)
(-0.237692 0.0748134 3.62757e-21)
(-0.250996 0.073065 1.78709e-21)
(-0.263855 0.0709831 -3.49743e-21)
(-0.276257 0.0686342 -1.72994e-21)
(-0.288198 0.0660793 0)
(-0.299675 0.0633733 3.36055e-21)
(-0.310687 0.0605634 3.32516e-21)
(-0.321233 0.0576895 0)
(-0.331313 0.0547842 3.26313e-21)
(-0.340928 0.0518734 0)
(-0.350077 0.0489769 3.20696e-21)
(-0.35876 0.0461092 1.59884e-21)
(-0.366976 0.04328 0)
(-0.374724 0.0404958 0)
(-0.382001 0.0377594 0)
(-0.388806 0.0350718 0)
(-0.395136 0.0324318 0)
(-0.400987 0.0298374 0)
(-0.406356 0.0272853 2.94453e-21)
(-0.411239 0.0247724 -4.35728e-21)
(-0.415631 0.0222951 0)
(-0.419529 0.0198502 0)
(-0.422928 0.0174343 0)
(-0.425822 0.015045 4.16228e-24)
(-0.42821 0.0126801 2.62951e-21)
(-0.430086 0.0103391 5.12178e-21)
(-0.431449 0.00802249 -4.97761e-21)
(-0.432295 0.00573293 -2.41594e-21)
(-0.432619 0.00347407 2.32545e-21)
(-0.432416 0.00125048 1.4406e-23)
(-0.431676 -0.000936541 2.1581e-21)
(-0.430386 -0.00309322 0)
(-0.428531 -0.00522377 1.95752e-21)
(-0.426102 -0.00732461 2.97378e-23)
(-0.423091 -0.00939352 0)
(-0.419493 -0.0114275 0)
(-0.415307 -0.013424 -1.49467e-21)
(-0.41053 -0.0153791 0)
(-0.405165 -0.0172894 0)
(-0.399214 -0.0191502 1.14464e-21)
(-0.392681 -0.0209575 1.88858e-21)
(-0.385574 -0.0227063 -7.29647e-22)
(-0.377901 -0.0243923 0)
(-0.369671 -0.0260105 4.00293e-22)
(-0.360896 -0.027557 0)
(-0.351591 -0.0290272 2.08087e-22)
(-0.34177 -0.0304175 -1.36821e-22)
(-0.331451 -0.0317239 4.77509e-22)
(-0.320653 -0.0329436 3.37995e-22)
(-0.309396 -0.0340747 0)
(-0.297704 -0.0351162 -1.66248e-21)
(-0.285598 -0.0360613 0)
(-0.273101 -0.0369063 -3.87141e-21)
(-0.26024 -0.0376556 -2.94766e-21)
(-0.247042 -0.0383088 -3.39728e-21)
(-0.233533 -0.038865 3.8573e-21)
(-0.219742 -0.0393244 -6.61381e-21)
(-0.205697 -0.0396881 0)
(-0.191427 -0.0399578 0)
(-0.17696 -0.0401355 5.79754e-21)
(-0.162327 -0.0402238 9.59404e-21)
(-0.147556 -0.0402258 0)
(-0.132675 -0.0401447 -3.81487e-21)
(-0.117713 -0.0399848 0)
(-0.102696 -0.0397494 1.27912e-20)
(-0.087651 -0.0394438 2.89214e-22)
(-0.0726041 -0.0390719 -2.92346e-22)
(-0.0575799 -0.0386394 -1.01139e-20)
(-0.0426028 -0.0381509 0)
(-0.027696 -0.0376124 1.12729e-20)
(-0.0128803 -0.03703 3.02131e-22)
(0.00183355 -0.0364094 0)
(0.0164276 -0.0357527 0)
(0.0308752 -0.0350576 0)
(0.0451566 -0.0343223 -1.38252e-20)
(0.0592513 -0.0335532 0)
(0.0731399 -0.0327533 0)
(0.0868104 -0.0319232 0)
(0.100255 -0.0310695 0)
(0.113465 -0.0301981 0)
(0.12643 -0.0293147 -1.56019e-20)
(0.139145 -0.0284237 0)
(0.151601 -0.0275291 -1.64484e-20)
(0.163792 -0.0266342 -1.67331e-20)
(0.175715 -0.0257422 1.70086e-20)
(0.187363 -0.0248558 0)
(0.198733 -0.0239779 1.75328e-20)
(0.209823 -0.0231105 0)
(0.22063 -0.0222556 1.80229e-20)
(0.231156 -0.0214146 -1.82557e-20)
(0.2414 -0.020589 -5.50875e-20)
(0.251364 -0.0197801 0)
(0.261048 -0.0189888 -5.63933e-20)
(0.270457 -0.0182155 -1.87943e-20)
(0.279591 -0.017461 0)
(0.288455 -0.0167257 -3.86949e-20)
(0.297052 -0.01601 -3.90709e-20)
(0.305385 -0.0153142 5.92849e-20)
(0.313459 -0.0146382 0)
(0.321278 -0.0139819 2.01843e-20)
(0.328847 -0.0133458 2.03423e-20)
(0.336172 -0.0127306 6.12629e-20)
(0.34326 -0.012136 0)
(0.350116 -0.0115618 0)
(0.356743 -0.0110081 0)
(0.363145 -0.0104749 2.08763e-20)
(0.369327 -0.00996152 0)
(0.375295 -0.00946769 0)
(0.381053 -0.00899311 -2.14415e-20)
(0.386609 -0.00853753 -2.15581e-20)
(0.391966 -0.00810024 0)
(0.397131 -0.00768105 0)
(0.402111 -0.00727965 -4.37761e-20)
(0.40691 -0.00689554 0)
(0.411534 -0.006528 4.41952e-20)
(0.41599 -0.00617699 4.42789e-20)
(0.420283 -0.00584208 0)
(0.424417 -0.00552301 0)
(0.428397 -0.00521927 -4.48604e-20)
(0.432228 -0.00493027 -9.62473e-23)
(0.435916 -0.00465545 -9.16714e-23)
(0.439467 -0.00439439 0)
(0.442885 -0.00414648 -9.12036e-20)
(0.446177 -0.00391114 0)
(0.449346 -0.00368797 0)
(0.452399 -0.00347667 0)
(0.455339 -0.0032769 4.62549e-20)
(0.45817 -0.00308825 0)
(0.460896 -0.00291035 -9.2934e-20)
(0.463523 -0.0027427 -4.66586e-20)
(0.466053 -0.00258483 0)
(0.468491 -0.00243621 -4.69017e-20)
(0.470841 -0.00229628 0)
(0.473106 -0.0021644 0)
(0.475292 -0.00204008 -1.41578e-19)
(0.477402 -0.00192272 9.45515e-20)
(0.479441 -0.00181191 0)
(0.48141 -0.00170768 9.49132e-20)
(0.483313 -0.00160975 -4.75771e-20)
(0.48515 -0.00151755 0)
(0.486923 -0.00143019 0)
(0.488633 -0.00134661 0)
(0.490281 -0.0012655 -1.43453e-19)
(0.491869 -0.0011855 0)
(0.493396 -0.00110507 -4.79328e-20)
(0.49486 -0.00102233 0)
(0.496258 -0.000934751 0)
(0.497586 -0.000839235 0)
(0.498836 -0.000731705 0)
(0.499998 -0.000607189 0)
(0.501059 -0.000458021 0)
(0.501993 -0.000273604 -9.6265e-20)
(0.502774 -3.72403e-05 0)
(0.503356 0.000272445 -4.82393e-20)
(0.503692 0.000693687 1.4492e-19)
(0.503695 0.00128177 0)
(0.503246 0.00212889 0)
(0.502284 0.00343352 -9.7349e-20)
(0.500259 0.00542915 -9.79371e-20)
(0.498159 0.00885449 9.89543e-20)
(0.492256 0.0146197 1.0122e-19)
(-0.00318704 -0.015646 -3.78444e-20)
(-0.0125811 0.00141031 -2.43067e-20)
(-0.0223023 0.0185922 -8.89864e-21)
(-0.0332854 0.0336502 -3.16498e-21)
(-0.0448876 0.0468999 0)
(-0.0567613 0.0584959 4.77367e-21)
(-0.0689393 0.0684956 -2.18056e-21)
(-0.0814836 0.0769567 0)
(-0.0943941 0.0839847 -1.972e-21)
(-0.107611 0.0897192 0)
(-0.121031 0.0942997 3.59157e-21)
(-0.134535 0.0978419 0)
(-0.148007 0.100433 1.6628e-21)
(-0.161346 0.10214 3.2104e-21)
(-0.174471 0.103018 -3.10794e-21)
(-0.187323 0.103125 0)
(-0.199861 0.102526 -2.93827e-21)
(-0.212063 0.101295 0)
(-0.223916 0.0995096 0)
(-0.235414 0.0972488 -2.76022e-21)
(-0.246556 0.0945914 0)
(-0.257342 0.0916122 -2.08504e-23)
(-0.267773 0.0883799 0)