/*--------------------------------*- C++ -*----------------------------------*\
  =========                 |
  \\      /  F ield         | OpenFOAM: The Open Source CFD Toolbox
   \\    /   O peration     | Website:  https://openfoam.org
    \\  /    A nd           | Version:  7
     \\/     M anipulation  |
\*---------------------------------------------------------------------------*/
FoamFile
{
    version     2.0;
    format      ascii;
    class       surfaceScalarField;
    location    "2.2";
    object      alphaPhi0.water;
}
// * * * * * * * * * * * * * * * * * * * * * * * * * * * * * * * * * * * * * //

dimensions      [0 3 -1 0 0 0 0];

internalField   nonuniform List<scalar> 
11840
(
0
0
0
0
0
0
0
0
0
0
0
0
0
0
0
0
0
0
0
0
0
0
0
0
0
0
0
0
0
0
0
0
0
0
0
0
0
0
0
0
0
0
0
0
0
0
0
0
0
0
0
0
0
0
0
0
0
0
0
0
0
0
0
0
0
0
0
0
0
0
0
0
0
0
0
0
0
0
0
0
0
0
0
0
0
0
0
0
0
0
0
0
0
0
0
0
0
0
0
0
0
0
0
0
0
0
0
0
0
0
0
0
0
0
0
0
0
0
0
0
0
0
0
0
0
0
0
0
0
0
0
0
0
0
0
0
0
0
0
0
0
0
0
0
0
0
0
0
0
0
0
0
0
0
0
0
0
0
0
0
0
0
0
0
0
0
0
0
0
0
0
0
0
0
0
0
0
0
0
0
0
0
0
0
0
0
0
0
0
0
0
0
0
0
0
0
0
0
0
0
0
0
0
0
0
0
0
0
0
0
0
0
0
0
0
0
0
0
0
0
0
0
0
0
0
0
0
0
0
0
0
0
0
0
0
0
0
9.3910007565922e-205
-9.463480135284e-218
1.4906373331465e-204
7.4531866657323e-205
2.3050850771843e-204
1.1524586137437e-204
4.2189821961577e-205
1.8848118448464e-204
7.6708767202868e-206
3.451894524129e-205
3.4672229001369e-185
0
5.2237582501173e-185
2.5776333521382e-185
9.4977422729407e-186
4.2739840228233e-185
1.7268622314438e-186
7.7708800414969e-186
3.139749511716e-187
1.4128872802722e-186
4.5653529544486e-187
0
4.1328123944217e-187
0
7.5142043534941e-188
3.3813919590723e-187
4.1596113360169e-188
2.0798056680084e-188
2.5447854757568e-188
0
1.3556278029952e-188
0
6.4979828269354e-189
0
1.1814514230792e-189
5.3165314038562e-189
2.1480934965076e-190
9.6664207342841e-190
9.4642308077719e-191
0
3.8901933984228e-191
0
7.0730789062233e-192
3.1828855078004e-191
2.7422278600214e-192
0
4.9858688364026e-193
2.2436409763811e-192
1.6619255167871e-193
8.3096275839356e-194
3.0216827577948e-194
1.3597572410076e-193
1.0749778770565e-194
0
3.6770301823446e-195
0
6.6855094224452e-196
3.0084792401e-195
2.2088525604008e-196
0
4.0160955643676e-197
1.8072430039636e-196
1.2865243380504e-197
0
4.0086459126198e-198
0
7.2884471140114e-199
3.2798012011934e-198
2.2149146058383e-199
0
4.0271174668347e-200
1.8122028587361e-199
7.3220317849361e-201
3.2949142813998e-200
2.1752362776415e-201
0
3.9549753212543e-202
1.7797386895775e-201
1.1509259242097e-202
0
2.0925965046991e-203
9.416655761878e-203
5.9756272803703e-204
0
1.0867454908542e-204
4.8886964677868e-204
2.8827248168834e-205
1.4413624084417e-205
5.244710915223e-206
2.3574037855804e-205
1.3753506369115e-206
6.8767531845575e-207
3.56776593249e-207
1.783882966245e-207
8.1543561306761e-208
1.4979604627564e-207
2.1092163798997e-208
1.0546081899498e-208
5.6615010775607e-209
0
1.4276515090889e-209
7.1382575454447e-210
3.7327485157042e-210
0
9.2230070773852e-211
4.6669116761461e-211
2.3609674237203e-211
0
5.7397380294699e-212
2.8717754499546e-212
1.3860550436518e-212
6.9302752182589e-213
3.3262728238741e-213
1.6632663432003e-213
8.249933528796e-214
0
2.0315228912687e-214
0
4.7896349893476e-215
2.3948175403513e-215
1.1656028676235e-215
0
2.722506831343e-216
1.3612534331159e-216
6.5599234113506e-217
0
1.5202364136101e-217
7.6011820680509e-218
3.6330228254344e-218
0
8.6499268744632e-219
0
1.9861720341379e-219
9.9308601709208e-220
4.7024674166883e-220
0
1.075347637931e-220
5.376738189655e-221
2.5359655555695e-221
4.5072204848468e-224
5.7853435220953e-222
2.8926717610478e-222
1.3193259362936e-222
6.5966296814678e-223
3.0451686183587e-223
6.5483229170298e-224
6.947462456027e-224
3.4737312280136e-224
1.5894830585999e-224
7.5374135937997e-225
3.6425741166776e-225
1.8212870583388e-225
8.3830196766201e-226
4.1594949895592e-226
1.9398935267494e-226
9.6719344774906e-227
4.5218512412525e-227
2.2609256206263e-227
1.0638578544058e-227
5.3182790349224e-228
1.6705451236773e-228
0
0
0
0
0
0
0
0
0
0
0
0
0
0
0
0
0
0
0
0
0
0
0
0
0
0
0
0
0
0
0
0
0
0
0
0
0
0
6.7500123386767e-146
3.3750061693384e-146
1.1328330308555e-141
5.6641651542775e-142
1.0298671837861e-141
1.0299009138944e-142
0
5.660119526166e-138
3.8271408823068e-120
0
2.0345952692951e-120
5.0264903117856e-121
2.0345952692951e-120
0
1.2746931433267e-118
6.2201404535296e-119
1.5495775983076e-119
9.5661303760063e-119
1.5495775983076e-119
0
2.7592910574475e-119
0
3.5890123109449e-119
0
3.4169687935757e-119
0
1.1872003827832e-120
3.2982487552974e-119
1.180482739177e-120
0
9.7478913111229e-121
0
7.3081416127155e-121
0
4.7413831631561e-121
0
1.4631274524012e-122
4.595070417916e-121
1.2654310159964e-122
0
2.1816428032608e-123
0
2.1809128410871e-123
0
3.0781776145087e-124
0
3.0769711934045e-124
0
5.6929596924728e-126
3.0200415964798e-124
3.8223184571764e-126
0
2.6253509351449e-126
0
3.0292509157074e-127
0
1.2737347375696e-127
0
5.0030446901411e-128
0
1.5621265946152e-128
0
8.1980360779368e-129
0
7.8464872399565e-130
0
2.525805213742e-130
0
1.6151997209756e-130
0
7.594738485389e-131
0
9.324156266779e-132
6.6623228587111e-131
4.5731115999569e-132
0
1.4239264586535e-133
4.4307189540916e-132
1.4231411010129e-133
0
3.1713427072525e-135
1.3914276739404e-133
3.1687459306868e-135
0
1.5420202371491e-135
0
5.8994847879099e-137
1.48302538927e-135
5.0932987178119e-137
0
9.2605431232945e-138
4.1672444054824e-137
1.130642489286e-138
8.1299006340085e-138
5.4573662993585e-139
0
1.699275074834e-140
5.2874387918751e-139
1.69830821176e-140
0
3.0198415370447e-142
1.6681097963896e-140
1.8258944716084e-142
0
1.0536124779757e-142
0
1.0215725327668e-143
0
1.0209705306355e-143
0
1.856310055701e-144
8.3533952506544e-144
5.6861032385414e-146
1.7994490233156e-144
1.365609181957e-146
0
1.3647986710032e-146
0
5.5782772075402e-148
1.3090158989278e-146
4.7735655507719e-148
0
5.7731689804816e-149
4.1962486527238e-148
2.7091975858517e-149
0
5.8525041094912e-151
2.6506725447568e-149
5.8474446263574e-151
0
2.3254663670775e-151
0
4.4757329623779e-152
0
2.4598474354192e-152
0
5.5950959259215e-154
2.40389647616e-152
5.601853247344e-154
0
2.5269336409168e-154
0
4.0195767369998e-155
2.1249759672168e-154
1.7353240076084e-155
0
2.9572626111975e-156
1.4395979753856e-155
1.2545349723678e-156
0
4.8451643201411e-157
0
1.8252466674425e-157
0
6.7818165449706e-158
0
1.232879766771e-158
5.5489367781996e-158
4.53307309444e-159
0
0
0
0
0
0
0
0
0
0
0
0
0
0
0
0
0
0
0
0
0
0
0
0
0
0
0
0
0
0
0
0
0
0
0
0
-5.3610593829421e-84
-2.680529691471e-84
-4.2038216091628e-83
-2.1019108045814e-83
-4.4494958207825e-82
-2.2247479103913e-82
-1.9826696331643e-81
-9.9133481658213e-82
-6.1275971496774e-81
-3.0637985748387e-81
-1.4893177885421e-80
-7.4465889427106e-81
3.1294507608101e-67
1.5718368657883e-67
1.5145097091426e-68
3.0110856979813e-67
1.0484460105907e-68
5.743401567995e-69
1.0025200804943e-69
9.0226807244484e-69
2.386809682879e-69
2.0484011144135e-68
1.4862087838974e-66
9.8813251854313e-67
8.5469191316059e-66
5.5029782451599e-66
1.1151752021939e-63
5.986005906927e-64
9.513411946598e-63
6.3155021077048e-63
6.1501608289226e-62
3.9931046351501e-62
1.3427549056747e-60
7.6181496697934e-61
6.4612426641748e-60
4.2296783494361e-60
1.260240602683e-58
5.0978941156239e-59
3.9064393595066e-58
2.3518019338093e-58
1.3071618720711e-57
9.7576773719038e-58
7.8712754479389e-57
4.9575003058723e-57
2.985863146092e-56
2.1196486150595e-56
1.1767256838926e-55
8.3143974499191e-56
5.0143526966113e-55
3.5844459825673e-55
1.659385772673e-54
9.6128291541427e-55
4.7233281772273e-54
3.523923961263e-54
1.3543720179066e-53
9.4223886666353e-54
3.0340627682788e-53
2.3613437106054e-53
7.4775978828135e-53
5.9670049460828e-53
1.4526392977554e-52
1.1487275718696e-52
3.4006089716533e-52
2.4328211767858e-52
7.8486620504798e-52
5.7731931816656e-52
1.4887467917552e-51
1.2223066192179e-51
2.5900251330655e-51
2.3478405197447e-51
3.0445927419689e-51
2.9589087156138e-51
3.1399378170445e-51
3.1397749924775e-51
2.8966017086137e-51
3.1785090741738e-51
2.5483972835419e-51
2.8460316934465e-51
2.3124654610354e-51
2.4516002566598e-51
1.865658111953e-51
2.1788946027542e-51
1.4218191370539e-51
1.6515732212e-51
8.0354757664415e-52
1.1341903418448e-51
2.9359936211617e-52
5.1575720214056e-52
6.3918501925406e-53
1.5832794571456e-52
8.7612547711027e-54
3.9172575799224e-53
2.0794834466121e-54
5.3486284306253e-54
3.8463519771765e-55
1.6242138986577e-54
6.2437092470714e-56
3.1144694295143e-55
1.5696792943043e-56
4.0918854577429e-56
2.5380924685135e-57
1.2663506907863e-56
6.5441963640232e-58
1.6515854548446e-57
1.2128357349314e-58
5.1265742770017e-58
1.9743995883304e-59
9.821364147947e-59
4.7076124479854e-60
1.3064003852846e-59
9.1289463515144e-61
3.5196310730983e-60
2.2712299102951e-61
5.8863345675391e-61
4.1975351652738e-62
1.7767810775425e-61
6.7351442590439e-63
3.4072771240267e-62
1.7492619939582e-63
4.387045803227e-63
3.279355473598e-64
1.3667685084502e-63
6.2761772533921e-65
2.5866860140525e-64
1.1634397720844e-65
4.9458303897937e-65
1.8033288407143e-66
9.5020739917003e-66
3.6387751987498e-67
1.3783351613852e-66
9.0931357615925e-68
2.3808558639735e-67
2.2007644774656e-68
5.7193810923188e-68
5.1477760308613e-69
1.5041559165845e-68
1.1906927975858e-69
3.2759898105177e-69
2.1955997225083e-70
9.2677824870141e-70
3.5289336086913e-71
1.7817344003085e-70
8.806637181778e-72
2.3163285661212e-71
2.0300320636693e-72
5.6077288401839e-72
3.080425702349e-73
1.6460031629557e-72
6.257295142712e-74
2.3447432338585e-73
1.5511031256762e-74
4.1021971673319e-74
3.7536752021438e-75
9.7655287929713e-75
8.7481051182754e-76
2.3357952940194e-75
1.93496991162e-76
5.4161187115861e-76
3.1263588704886e-77
1.5423738779383e-76
7.3382655944455e-78
2.0436963930849e-77
2.0319912561281e-78
4.4584480837991e-78
1.5937956758306e-78
0
0
0
0
0
0
0
0
0
0
0
0
0
0
0
0
0
0
7.4214072020772e-59
3.738787578939e-59
5.1731595149845e-57
2.7062648840363e-57
7.641834363888e-56
4.0681195042678e-56
1.2395547106521e-54
6.6211448773723e-55
1.6726261668037e-53
9.1354262551979e-54
1.9748472485506e-52
1.0623195673902e-52
3.460003243009e-51
2.2981600311933e-51
7.0917835803081e-51
5.0247976549733e-51
2.3131579323758e-50
2.2959048859692e-50
7.4649881761998e-51
1.5822767083746e-50
1.7414219165341e-51
5.7235662596657e-51
3.1661215862251e-52
1.4248097579116e-51
8.4616549362898e-53
2.3199560925961e-52
1.1420659788169e-48
4.379057701015e-49
2.0907522376078e-49
9.3299075509796e-49
3.8013271417377e-50
1.7106195234341e-49
6.9115753821877e-51
3.1101696035189e-50
1.2566504699974e-51
5.6549249121903e-51
2.2848190561931e-52
1.0281685643781e-51
4.154216465627e-53
1.8693974096305e-52
7.5531218121833e-54
3.3989042844102e-53
1.8354559219423e-50
0
3.3371925925697e-51
1.5017366626876e-50
6.0676229903327e-52
2.7304302936464e-51
6.4947131151948e-50
0
1.223126852527e-50
5.2715862641377e-50
7.3048699785559e-44
0
7.281408080821e-44
0
2.6592310765828e-45
7.0154849559865e-44
2.7146887556264e-45
0
1.5187081438112e-46
2.5628179413142e-45
8.9741836843763e-47
3.1064489539688e-47
2.0533687396327e-47
9.2437215352809e-47
6.3229324429654e-48
1.4226595093179e-47
1.8374532222643e-49
6.1392010159584e-48
3.6709585432111e-49
0
6.6770479609678e-50
3.003929617074e-49
1.9566132770822e-50
8.7910629008746e-50
3.6823214723972e-51
1.6273989886568e-50
3.464163451389e-49
0
5.4056097852847e-47
0
9.8296917193854e-48
4.4229706442452e-47
1.7129012451251e-48
8.1221629628962e-48
1.7196450721776e-48
0
4.897242592493e-48
0
4.905554223473e-48
0
8.9461204894702e-49
4.0164606580867e-48
9.9029769521353e-49
0
1.8209229920571e-49
8.1223918503561e-49
1.9772557189966e-49
0
6.360197753029e-51
1.9275356731963e-49
6.8344980316821e-51
0
6.7261658309879e-51
0
1.2118783014357e-51
5.5379116784132e-51
1.0484718896337e-51
0
1.9140962015846e-52
8.5826531810594e-52
3.2179671002745e-53
1.5946347991851e-52
2.6148919970672e-53
0
4.1046502507813e-54
2.2053713101309e-53
3.25877052282e-54
0
2.482236752909e-55
3.010928605865e-54
2.4829741344881e-55
0
4.5511176053138e-56
0
4.5500848794823e-56
0
3.1364686882214e-56
0
5.3672560839526e-57
2.5997563009596e-56
9.7590718659843e-58
4.3913744872334e-57
2.057893075748e-58
0
2.0573758673255e-58
0
6.805134201138e-60
1.9893264777045e-58
6.8034210879153e-60
0
2.8204880363447e-61
6.5213794088791e-60
2.6488763266802e-61
0
9.5861720439993e-62
0
4.2055157968101e-62
0
4.0724142966997e-62
0
6.3918092802909e-63
0
6.3897703675813e-63
0
1.2149313881071e-64
6.2682773639857e-63
8.6826471660235e-65
0
6.4194459650624e-65
0
2.5827602752307e-66
6.1611700593389e-65
2.3793069625093e-66
0
6.2076957634802e-67
0
2.3159543647152e-67
0
2.1272494587638e-67
0
3.2743293931366e-68
0
3.2714055719967e-68
0
3.9587744669321e-69
0
3.0699527083103e-69
0
0
0
0
0
0
0
0
0
0
0
0
0
0
0
0
2.0608269739953e-49
1.0317443120757e-49
2.0060787881536e-47
1.0127312037806e-47
9.5586674277656e-46
4.8717048897744e-46
2.9688882863777e-44
1.5287971220941e-44
6.7828041233725e-43
3.5306734871122e-43
1.2172641648657e-41
6.408998329624e-42
1.775949754248e-40
9.4674969060327e-41
2.1453163399699e-39
1.1592151546963e-39
2.189202535458e-38
1.1989356220451e-38
1.9556403700166e-37
1.0829160012556e-37
1.605123963156e-36
8.9505312300374e-37
1.2604124209719e-35
7.0552597433768e-36
9.5979012975044e-35
5.3910400735522e-35
7.009253812576e-34
3.9584713583599e-34
4.8117534046909e-33
2.7400436692963e-33
3.0522766989002e-32
1.7573499989552e-32
1.7700584920023e-31
1.0327235297852e-31
9.3363670282968e-31
5.5298368269633e-31
4.472614652916e-30
2.6930690788799e-30
1.947057238033e-29
1.1932202684801e-29
7.7142050609597e-29
4.8164470229665e-29
2.7869984018958e-28
1.7744544058873e-28
9.2006570536686e-28
5.9787747255739e-28
2.7814732311782e-27
1.8462103108671e-27
7.7177120705342e-27
5.2362775890558e-27
1.9702654672996e-26
1.3672714045329e-26
4.6405401309559e-26
3.2953361884208e-26
1.0114634624252e-25
7.3521335876385e-26
2.0470583249733e-25
1.5232918453245e-25
3.8602260052713e-25
2.9408464116357e-25
6.8035535822179e-25
5.3070673069535e-25
1.1229321707212e-24
8.9734528098571e-25
1.7348228884967e-24
1.4225651482975e-24
2.4925518900755e-24
2.1077117542063e-24
3.2605577234245e-24
2.8816780558775e-24
3.7373183838255e-24
3.5242852854741e-24
3.8206262296916e-24
3.7774777304604e-24
3.8072087559492e-24
3.7819984397537e-24
3.6432811961792e-24
3.6848521811886e-24
3.2575554011097e-24
3.4095648783988e-24
2.626988697123e-24
2.9003297451141e-24
1.8534093881925e-24
2.2018159383311e-24
1.1048928464225e-24
1.4459850806255e-24
5.3804485874426e-25
7.9569626262722e-25
2.1034923430758e-25
3.5798975041001e-25
6.7688978424729e-26
1.3178413184824e-25
1.9328533408856e-26
4.1412707726729e-26
5.336242214461e-27
1.1940772600961e-26
1.4962945749923e-27
3.3666739245823e-27
4.3092050366124e-28
9.5897817358646e-28
1.2692976761208e-28
2.7843150278287e-28
3.8050621807056e-29
8.2360096867561e-29
1.1575061192656e-29
2.4766400194911e-29
3.563157135096e-30
7.5532359902985e-30
1.1051812580584e-30
2.328426906449e-30
3.4343468933454e-31
7.2201430153942e-31
1.0629914447679e-31
2.2392975473875e-31
3.2620553920372e-32
6.909735306707e-32
9.8988059813768e-33
2.1130986610691e-32
2.9679474162693e-33
6.3913974780333e-33
8.795707668012e-34
1.9109661973193e-33
2.5785554452786e-34
5.6498891670264e-34
7.4836322470208e-35
1.6528868012699e-34
2.1515031231033e-35
4.7878949722386e-35
6.1301105731403e-36
1.3739767982634e-35
1.7316855308886e-36
3.9079170059975e-36
4.8519595163358e-37
1.1021063501903e-36
1.3489168902494e-37
3.083113814819e-37
3.7225511832772e-38
8.558841186715e-38
1.0200973248267e-38
2.3586525656274e-38
2.7767346972581e-39
6.4549184852137e-39
7.5102460140592e-40
1.7548440419555e-39
2.0189524373413e-40
4.7406722401136e-40
5.3959326488868e-41
1.2729698777971e-40
1.4341147864461e-41
3.3985034787387e-41
3.7912241285376e-42
9.0230950415032e-42
9.9712048702848e-43
2.3829846537874e-42
2.6096168734392e-43
6.2614937887709e-43
6.7975032665096e-44
1.6372413271653e-43
1.7625566896565e-44
4.2609551991775e-44
4.5501994700958e-45
1.1039188829701e-44
1.1697141799204e-45
2.8475739543118e-45
2.99471389538e-46
7.3145558053848e-46
7.6369117193205e-47
1.8712830797243e-46
1.940100381389e-47
4.7685843925922e-47
4.9105351409195e-48
1.2105823341272e-47
1.2384575076285e-48
3.0620205268857e-48
3.1127491494566e-49
7.717480765671e-49
7.7952751095668e-50
1.9386366257847e-49
1.950638153949e-50
4.8489581801996e-50
4.7581981061883e-51
1.2194561109795e-50
1.3953068996414e-51
2.8179542558391e-51
1.1272983493422e-51
0
0
0
0
0
0
0
0
0
0
0
0
1.868282202119e-49
9.320962510734e-50
2.696143736362e-47
1.3448888227475e-47
1.7384857509415e-45
8.707392362828e-46
6.9738410055866e-44
3.5155376923849e-44
1.9899960772691e-42
1.0112526768551e-42
4.3573437419405e-41
2.2345537366141e-41
7.6738086119411e-40
3.9753356702104e-40
1.1165059811957e-38
5.8492050928815e-39
1.3667254964196e-37
7.2485176839886e-38
1.4316140406613e-36
7.6937122510819e-37
1.2986629072555e-35
7.0753672338257e-36
1.0378619165675e-34
5.7227148662711e-35
7.6030691465039e-34
4.2226774289029e-34
5.3528068694485e-33
2.9801547751517e-33
3.6825139140447e-32
2.0541342617985e-32
2.4408404403236e-31
1.3685402650713e-31
1.5296996677258e-30
8.6511812632735e-31
8.9411389060207e-30
5.1134081675302e-30
4.8239073327194e-29
2.7960642061361e-29
2.3838545526736e-28
1.4035033471376e-28
1.0736028633308e-27
6.4333267263448e-28
4.3942946174464e-27
2.6847111082937e-27
1.6328551681467e-26
1.0186390444103e-26
5.5088608601009e-26
3.5135866680255e-26
1.6891603288141e-25
1.1026354560417e-25
4.7163008524247e-25
3.1533410145388e-25
1.2026300038258e-24
8.2391365718979e-25
2.8123705611967e-24
1.9740737262264e-24
6.0640395942325e-24
4.3584658557095e-24
1.2130294443944e-23
8.9189629672074e-24
2.2645562278063e-23
1.7018016358288e-23
3.9635110964565e-23
3.0432611901672e-23
6.5184211669478e-23
5.1170069638038e-23
1.006474456333e-22
8.094813545196e-23
1.4499141346517e-22
1.2007883211269e-22
1.911512543076e-22
1.6507810915326e-22
2.2205479335604e-22
2.0427139357072e-22
2.2851446878262e-22
2.2162913330632e-22
2.2862170431708e-22
2.2284140421811e-22
2.1994031868617e-22
2.1803232875632e-22
1.9891049617993e-22
2.0354551698209e-22
1.62986375903e-22
1.7548394474325e-22
1.1752544009242e-22
1.3570751480946e-22
7.2157743455489e-23
9.1360877226934e-23
3.6544007363844e-23
5.1956795943934e-23
1.4999292110144e-23
2.4377780169566e-23
5.0855375297628e-24
9.4208911201327e-24
1.520764223095e-24
3.1071811035268e-24
4.3503122069407e-25
9.3376132757745e-25
1.2551851940777e-25
2.7224214762061e-25
3.7151031760727e-26
7.9859758095149e-26
1.1272197174027e-26
2.3875838945633e-26
3.4922901142585e-27
7.2884904809786e-27
1.1009920274471e-27
2.2682144923524e-27
3.517606233133e-28
7.1747949241928e-28
1.1322273557229e-28
2.2960489790258e-28
3.6450594855203e-29
7.3862713938801e-29
1.1655503632875e-29
2.3717907368566e-29
3.682676352134e-30
7.5549543723914e-30
1.1466761808291e-30
2.3770924373439e-30
3.516969904029e-31
7.3732865494209e-31
1.0635072304988e-31
2.2542734515857e-31
3.1750003106877e-32
6.7991044799327e-32
9.3694607593955e-33
2.0253374262017e-32
2.7356403199368e-33
5.9648762479651e-33
7.9081667661162e-34
1.7383128780126e-33
2.2646745638676e-34
5.016075929141e-34
6.4278612516892e-35
1.4340116855717e-34
1.8091126600066e-35
4.0636341791802e-35
5.0512772183284e-36
1.1419774117236e-35
1.399774841379e-36
3.1840245526899e-36
3.85129119306e-37
8.8115449084469e-37
1.0524482587578e-37
2.4213102464498e-37
2.8574804462306e-38
6.6088140421552e-38
7.7105339670941e-39
1.7923005338762e-38
2.068354591188e-39
4.8310429888454e-39
5.5171749013603e-40
1.2945911061763e-39
1.4637388802795e-40
3.4498181112704e-40
3.8633334020799e-41
9.1439534484081e-41
1.0146179016154e-41
2.4112447492564e-41
2.6519702386216e-42
6.327131394811e-42
6.8998423418485e-43
1.6523939866051e-42
1.7872599853237e-43
4.2957513926913e-43
4.6098146147755e-44
1.1118755427297e-43
1.184108042171e-44
2.865714985062e-44
3.0295107416171e-45
7.3558658828254e-45
7.7212002619341e-46
1.880697704818e-45
1.9605644151326e-46
4.7901182909181e-46
4.9605249762521e-47
1.2155241829843e-46
1.250374221083e-47
3.0737907952761e-47
3.1489214284479e-48
7.7384688490241e-48
7.7284279936157e-49
1.9587429290806e-48
2.282347734368e-49
4.5519293336064e-49
1.8373458555632e-49
0
0
0
0
0
0
0
0
0
0
8.421294748792e-50
4.1790318013375e-50
1.6539569099408e-47
8.1782302874724e-48
1.3830364333478e-45
6.8381910378318e-46
6.9189238576978e-44
3.4301790944641e-44
2.4049250340417e-42
1.1978813846287e-42
6.3005701129922e-41
3.1579293142425e-41
1.3105039219461e-39
6.6177067277795e-40
2.2410567123571e-38
1.1414975082769e-38
3.2180126643056e-37
1.6552860733766e-37
3.9459125752662e-36
2.0521280545008e-36
4.183838976297e-35
2.2025874177449e-35
3.8636644323775e-34
2.0611413648535e-34
3.1417550213755e-33
1.6993730684489e-33
2.2768137434828e-32
1.2475694895076e-32
1.5030502316536e-31
8.2966409560608e-32
9.6598015785156e-31
5.3239996661415e-31
6.3241023430743e-30
3.4738259830569e-30
4.0700134252569e-29
2.2481582229075e-29
2.447315457793e-28
1.3740283752426e-28
1.3582680170592e-27
7.7704055270908e-28
6.9545669415138e-27
4.0510698820154e-27
3.2722892031934e-26
1.9413732740524e-26
1.405651203938e-25
8.5054117553508e-26
5.4749313814393e-25
3.3854745555761e-25
1.9225421374218e-24
1.2176109141709e-24
6.0602208592403e-24
3.9402503984849e-24
1.7099327472031e-23
1.1439291751506e-23
4.3150186849012e-23
2.9757168931202e-23
9.7603150428081e-23
6.9443026672402e-23
1.9922678740428e-22
1.4609937931754e-22
3.7155420970849e-22
2.7987516608508e-22
6.4425126262172e-22
4.9562928941685e-22
1.0583225903523e-21
8.2621679668064e-22
1.6708673089618e-21
1.3176912083307e-21
2.5462216375745e-21
2.0280026107147e-21
3.712032698867e-21
3.0038509159977e-21
5.0503402639128e-21
4.2141765972801e-21
6.1312511440542e-21
5.4145958616927e-21
6.4871491605935e-21
6.1098490440455e-21
6.5029235298165e-21
6.2206574668107e-21
6.3326763074407e-21
6.1312883880899e-21
5.820826775364e-21
5.800719170915e-21
4.8685674859229e-21
5.092965049396e-21
3.5984098782511e-21
4.0273521049588e-21
2.2762339887812e-21
2.7842997933971e-21
1.1961773783072e-21
1.6353806291298e-21
5.1322938915277e-22
7.9786692793431e-22
1.8258413854944e-22
3.2240678574535e-22
5.7095590754761e-23
1.1128761753878e-22
1.6947844510676e-23
3.4846068583869e-23
5.0448618268135e-24
1.0523123020425e-23
1.5384705768615e-24
3.1864284094711e-24
4.8182809768142e-25
9.8321949853146e-25
1.5453307958534e-25
3.103684109395e-25
5.0561046904679e-26
1.0013003563965e-25
1.6786637717947e-26
3.2898750502693e-26
5.6135491360369e-27
1.0943425255235e-26
1.874472121761e-27
3.6566760935186e-27
6.1999948089737e-28
1.217191355865e-27
2.0195631750321e-28
4.007526334991e-28
6.4602286761699e-29
1.2989605062832e-28
2.0289274259664e-29
4.1366002347779e-29
6.2648931082094e-30
1.2944161105351e-29
1.9055741290511e-30
3.9853380560755e-30
5.7196689216333e-31
1.2093460700228e-30
1.696425506874e-31
3.6223974636223e-31
4.9766513156496e-32
1.0723214495029e-31
1.4450831790753e-32
3.1400241294916e-32
4.1559001978548e-33
9.1019142219385e-33
1.1843901383962e-33
2.6133148646374e-33
3.3466345453123e-34
7.4362277804579e-34
9.38029726017e-35
2.098167415284e-34
2.6092334776924e-35
5.8730131865752e-35
7.2056397740442e-36
1.6315635600844e-35
1.976306580895e-36
4.5002921411733e-36
5.3852161226758e-37
1.2328979364987e-36
1.4583170395637e-37
3.3558755610462e-37
3.9257560143117e-38
9.0783694132206e-38
1.0508252552223e-38
2.4414840919236e-38
2.7975542620469e-39
6.5291351421026e-39
7.409089153387e-40
1.7366672663057e-39
1.9524507805562e-40
4.5955014550103e-40
5.1204591733766e-41
1.2100240753244e-40
1.3366887298766e-41
3.1709063204723e-41
3.473907279281e-42
8.2714024464739e-42
8.9896363727258e-43
2.1480991825181e-42
2.3166860806738e-43
5.5549166055385e-43
5.9464117206887e-44
1.4305834338409e-43
1.5204134258192e-44
3.6696328634078e-44
3.8730832130697e-45
9.3768550627406e-45
9.8278378177785e-46
2.3873921298259e-45
2.4912616012826e-46
6.0505879307074e-46
6.1527660471571e-47
1.54166538074e-46
1.8302195647441e-47
3.6033252905329e-47
1.4679276020393e-47
0
0
0
0
0
0
0
0
0
0
4.1979284887032e-48
2.0431613076724e-48
5.8609477530485e-46
2.8538869991983e-46
3.9312070163801e-44
1.9176739651901e-44
1.6939501325589e-42
8.2892426456552e-43
5.2993966185407e-41
2.6044631110012e-41
1.2880633775839e-39
6.3645434347062e-40
2.5405341593678e-38
1.2633080966443e-38
4.1894729306884e-37
2.0986240288394e-37
5.8840547452362e-36
2.9724088484575e-36
7.1497621263503e-35
3.6465914438832e-35
7.5869869699663e-34
3.9120520853673e-34
7.0721346127258e-33
3.6906333186169e-33
5.8539380488863e-32
3.0962333669985e-32
4.2947623109457e-31
2.3044117600403e-31
2.82347187322e-30
1.5356506496284e-30
1.7094678622826e-29
9.3534605418101e-30
1.0231089294656e-28
5.5447970823765e-29
6.7224207432127e-28
3.5830976646096e-28
5.1034543649985e-27
2.7082200729882e-27
3.8759811511683e-26
2.0944616479015e-26
2.6254115912239e-25
1.4606951424073e-25
1.5435971088412e-24
8.8466465162044e-25
7.8757768930707e-24
4.6433260823715e-24
3.498842125092e-23
2.1222893869143e-23
1.3528568128243e-22
8.4549390271803e-23
4.5543479878065e-22
2.9385251982392e-22
1.3358824189576e-21
8.9237611996886e-22
3.4003919805474e-21
2.3632209685747e-21
7.4224739683043e-21
5.4088176243175e-21
1.3676280503976e-20
1.0546442903241e-20
2.1180372250018e-20
1.7346563964892e-20
2.8398069323582e-20
2.4403483148019e-20
3.5055436016782e-20
3.0839441441316e-20
4.2371765662876e-20
3.7279807034259e-20
5.2216302208591e-20
4.518919073712e-20
6.6416190087748e-20
5.6305340691977e-20
8.5581290233993e-20
7.1826358389919e-20
1.0567877606492e-19
9.0529030826602e-20
1.1639047335511e-19
1.0558696282754e-19
1.1743157369869e-19
1.1009247873303e-19
1.1585445390866e-19
1.0932809145208e-19
1.0849459554613e-19
1.0499806756922e-19
9.288484270415e-20
9.412538838631e-20
7.0507777557652e-20
7.6288786237122e-20
4.5954546428697e-20
5.4221150524589e-20
2.4997297662296e-20
3.2859416670716e-20
1.1164509705926e-20
1.6620170945299e-20
4.1512851699869e-21
6.995912075759e-21
1.355873584523e-21
2.5208997943658e-21
4.1839826396101e-22
8.2248823745903e-22
1.2891147368937e-22
2.5783853367105e-22
4.0637029804115e-23
8.0838364982178e-23
1.31729254038e-23
2.5821976986444e-23
4.3833395305711e-24
8.4511717853751e-24
1.4910676445361e-24
2.8327521666747e-24
5.1517914717431e-25
9.6849771549917e-25
1.7920960780151e-25
3.3536564157457e-25
6.2145229278359e-26
1.165499354498e-25
2.1290992386532e-26
4.0269912491498e-26
7.1606008004723e-27
1.3724109639479e-26
2.3567915174118e-27
4.58956555188e-27
7.5899196159581e-28
1.5027889802126e-27
2.3957849499756e-28
4.8192541938448e-28
7.4306185541198e-29
1.5162343979002e-28
2.2698276974639e-29
4.690540561672e-29
6.8416011101685e-30
1.4297175841174e-29
2.037488195197e-30
4.3009626118389e-30
6.0008734765959e-31
1.2785018909825e-30
1.7491741203799e-31
3.7588598959626e-31
5.049230778322e-32
1.0938315243209e-31
1.4442559110334e-32
3.1525574925002e-32
4.0956768110426e-33
9.0042463290659e-33
1.1520897567885e-33
2.5499755629548e-33
3.216044357431e-34
7.1637553271675e-34
8.9127023356653e-35
1.9973450008883e-34
2.4530600414463e-35
5.5289943264403e-35
6.70755003011e-36
1.5201169615222e-35
1.8226786572217e-36
4.1523032527192e-36
4.9234514314608e-37
1.1272334968522e-36
1.3223794211233e-37
3.042094082805e-37
3.5324372339097e-38
8.1635160151179e-38
9.3869016196474e-39
2.1788701382453e-38
2.4819338235336e-39
5.7853700291586e-39
6.5307458921403e-40
1.5285025121212e-39
1.7104840031227e-40
4.0190174340897e-40
4.459979277638e-41
1.0518901373107e-40
1.1579067868748e-41
2.7408844958687e-41
2.9936887939626e-42
7.1113073912747e-42
7.7088870685502e-43
1.8374335875002e-42
1.9774317407546e-43
4.7285949701606e-43
5.0519109710023e-44
1.2123314801968e-43
1.289198358643e-44
3.0935206157327e-44
3.2044255186914e-45
7.9356302062714e-45
9.6029361095502e-46
1.8656615737055e-45
7.6728675114025e-46
0
0
0
0
0
0
0
0
3.4164353875458e-60
9.766313503481e-61
1.0068452647823e-46
4.7981069809446e-47
1.2234163800476e-44
5.847935872844e-45
7.3308518750456e-43
3.5166494894855e-43
2.8840720200468e-41
1.3892880174169e-41
8.3795484576483e-40
4.0558409513371e-40
1.9180178330115e-38
9.3333912788735e-39
3.6045236363831e-37
1.7644345255908e-37
5.7223385941475e-36
2.8195644387402e-36
7.817602524261e-35
3.8802994252578e-35
9.3338990735747e-34
4.6713905173977e-34
9.8217861760743e-33
4.9624498833031e-33
9.1615343486071e-32
4.6781967218247e-32
7.6483504992555e-31
3.9536441125899e-31
5.6806705828648e-30
2.975758688461e-30
3.8086584932979e-29
2.025808453804e-29
2.2762027357463e-28
1.2299664045925e-28
1.2525037281414e-27
6.7321357518798e-28
7.9370849349239e-27
4.1443148715625e-27
6.212718444396e-26
3.1543401083611e-26
5.749930847446e-25
2.9122852512042e-25
5.4276718561936e-24
2.8055749929016e-24
4.486805650626e-23
2.3907835006144e-23
3.0320801073684e-22
1.6744286044585e-22
1.6768124914174e-21
9.5966717584404e-22
7.656297669451e-21
4.5448992340894e-21
2.8965487387445e-20
1.7895416159324e-20
9.0964973841379e-20
5.8782790563746e-20
2.3692670159249e-19
1.6119197494719e-19
5.0820498887152e-19
3.6769028280015e-19
8.7808746444579e-19
6.886292949356e-19
1.173109710014e-18
1.0262217232913e-18
1.2462515410795e-18
1.1955461205526e-18
1.2479251938097e-18
1.2074551864337e-18
1.1676606764663e-18
1.1568182227571e-18
1.0914417968505e-18
1.0553940047929e-18
1.0900709955846e-18
1.0320599988646e-18
1.169267462241e-18
1.0602690638993e-18
1.3219563501578e-18
1.1585427457486e-18
1.4774141970766e-18
1.3031049520555e-18
1.5154921782134e-18
1.3883516583499e-18
1.5122319353212e-18
1.390783509722e-18
1.4381564599268e-18
1.3518018029975e-18
1.2622338287805e-18
1.2369263693181e-18
9.8359631033724e-19
1.0271178061095e-18
6.600351626054e-19
7.5008454170936e-19
3.7103741612714e-19
4.6851649386769e-19
1.7216299802961e-19
2.4529966896794e-19
6.6828436646732e-20
1.0741108045398e-19
2.2813697348113e-20
4.0394873519328e-20
7.3369749643857e-21
1.3752547079684e-20
2.3476089552917e-21
4.4874300556574e-21
7.6748263728544e-22
1.4613909759693e-21
2.5825364397407e-22
4.8477234402335e-22
8.9375567457573e-23
1.6497029736172e-22
3.1669901300815e-23
5.7589807982091e-23
1.1404302661785e-23
2.0527628510602e-23
4.1318643241912e-24
7.4107425498676e-24
1.4899169948095e-24