/*--------------------------------*- C++ -*----------------------------------*\
  =========                 |
  \\      /  F ield         | OpenFOAM: The Open Source CFD Toolbox
   \\    /   O peration     | Website:  https://openfoam.org
    \\  /    A nd           | Version:  7
     \\/     M anipulation  |
\*---------------------------------------------------------------------------*/
FoamFile
{
    version     2.0;
    format      ascii;
    class       volScalarField;
    location    "2.2";
    object      alpha.water;
}
// * * * * * * * * * * * * * * * * * * * * * * * * * * * * * * * * * * * * * //

dimensions      [0 0 0 0 0 0 0];

internalField   nonuniform List<scalar> 
6000
(
0
0
0
0
0
0
0
0
0
0
0
0
0
0
0
0
0
0
0
0
0
0
0
0
0
0
0
0
0
0
0
0
0
0
0
0
0
0
0
0
0
0
0
0
0
0
0
0
0
0
0
0
0
0
0
0
0
0
0
0
0
0
0
0
0
0
0
0
0
0
0
0
0
0
0
0
0
0
0
0
0
0
0
0
0
0
0
0
0
0
0
0
0
0
0
0
0
0
0
0
0
0
0
0
0
0
0
0
0
0
0
0
0
0
0
0
0
0
0
2.1129751702333e-202
2.9812746662929e-202
4.6102121167929e-202
6.8650717122581e-205
0
7.8012515253081e-183
1.0464639386695e-182
3.0030947653665e-216
1.9465006726768e-279
1.081059673955e-217
1.0272044147509e-184
9.2988278874489e-185
0
8.3192226720338e-186
5.7257673204528e-186
3.0501625567391e-186
1.4620461360605e-186
0
5.103203814962e-204
2.1294519317487e-188
8.7529351464513e-189
-1.5947511921756e-205
6.1700126850482e-190
1.9934389902201e-206
3.3238510335742e-191
2.242618863997e-206
2.4187002233771e-192
8.2733179102753e-193
1.3578356403113e-206
4.9699182609018e-194
9.1313230112535e-207
2.8946797606134e-195
9.0194533033946e-196
5.5821561562123e-207
4.9835578631362e-197
6.6974018277542e-207
1.091067728794e-206
4.8942816246934e-199
1.024934212343e-206
2.5895833294719e-200
1.4254633885673e-206
1.3445161380833e-201
8.2912052860189e-206
5.7654496337668e-203
1.3580631349713e-206
2.750701273823e-204
7.1355318649799e-205
1.0857498980239e-205
4.2184327597994e-206
1.2738377424512e-206
2.8553030181779e-207
8.3986841603344e-208
1.8418310086044e-208
5.3121767033707e-209
1.147852284133e-209
2.7721100873036e-210
6.6524806821165e-211
1.8562350439791e-211
4.5709265053545e-212
9.5792699558565e-213
2.6226064521529e-213
5.4450136539637e-214
1.4759827675539e-214
3.0404728272203e-215
8.1743013572274e-216
1.9462335467542e-216
3.9723440682643e-217
1.0580551687549e-217
2.150695275862e-218
5.7036688897889e-219
1.157068704419e-219
2.6386518725871e-220
6.5242132454557e-221
1.3894924912054e-221
3.1994662021599e-222
7.2851482333553e-223
1.6782046777616e-223
3.8811637113115e-224
9.043702482505e-225
2.1277662206669e-225
6.6821804947093e-226
0
0
0
0
0
0
0
0
0
0
0
0
0
0
0
0
0
0
0
1.3500024677353e-143
2.265666061711e-139
1.6865054177642e-144
2.8301009574331e-135
7.9919706659936e-118
4.4997205746122e-118
8.7351887973007e-135
2.5550226020333e-116
4.8018529059361e-117
0
4.2472593488501e-117
7.1147066568843e-117
7.941972397012e-117
7.2093021805879e-134
3.689607644919e-119
2.0945862946094e-118
1.8427030594389e-118
1.0326501448662e-118
0
1.1415360821555e-120
2.8478478302574e-120
2.0875436333376e-124
4.4988329669265e-121
2.8572550180907e-125
0
4.2128342413336e-124
2.7440126675796e-124
4.7581854836183e-124
3.2998982062319e-125
1.4304389093801e-125
6.1439698384057e-126
1.2480164410439e-126
1.2321204383037e-126
8.3392611020685e-128
1.4092436696741e-128
1.3401762483201e-128
3.1282548362237e-146
7.3075034663683e-130
0
1.2079472842018e-134
0
3.9940401743177e-136
2.4516845897588e-133
0
1.2159084692534e-135
0
0
8.6308017990469e-137
2.3307314785001e-154
1.4266935702759e-141
-1.8208839675782e-156
1.732766198827e-140
1.1151154964209e-140
1.3391717443287e-140
8.4731762313265e-145
0
4.4455174989702e-160
5.9232960770744e-144
1.1297807899809e-147
-2.9118139618255e-161
1.1224004475234e-146
0
4.2044214615982e-147
-5.6871366441905e-164
7.4111901721654e-152
4.7692828570608e-149
2.5064680264366e-149
2.53445726032e-150
0
6.3026271927446e-153
4.3054562624825e-152
0
3.4930699659398e-153
-2.0856471257043e-160
2.7788388586958e-154
1.0922876915852e-154
4.1049619724223e-155
1.5246945687765e-155
6.1693948546634e-177
1.0198753367283e-156
5.7872531837691e-157
0
0
0
0
0
0
0
0
0
0
0
0
0
0
0
0
0
-1.0722118765884e-81
-8.4076432183256e-81
-8.898991641565e-80
-3.9653392663285e-79
-1.2255194299355e-78
-2.9786355770842e-78
6.3093233931674e-65
3.8034169463249e-67
1.4275111197129e-67
-1.4279323218969e-82
6.9214480119237e-68
1.4564903469956e-64
8.3607186176589e-64
1.1132082631474e-61
9.6507108430594e-61
6.0691870208593e-60
1.4315254551786e-58
6.5078619500222e-58
2.5423900913079e-56
5.2373599447123e-56
1.5027678838438e-55
8.8938635748993e-55
3.3947826354723e-54
1.3256856043178e-53
5.7304713198247e-53
2.1237874604778e-52
5.785485929419e-52
1.778460688708e-51
3.953090959391e-51
1.0048210804304e-50
1.9842642149218e-50
4.6047947808665e-50
1.0915151441792e-49
2.0826881556605e-49
4.1250523114973e-49
5.2927242888859e-49
6.0249049266991e-49
5.623883702749e-49
4.9990300708934e-49
4.6605135885683e-49
3.854268043472e-49
3.1481915938716e-49
2.0323822858226e-49
9.4252279036403e-50
2.7288022077901e-50
2.4022981523401e-51
3.9281946880644e-52
3.0893360565776e-53
5.0123499547146e-54
2.6957247879989e-54
2.3059355478107e-55
1.0672064697178e-55
9.4996713372117e-57
1.5517444389851e-57
9.0861273334826e-58
1.3426230917036e-58
4.5387569409938e-59
3.4758056023465e-60
5.4438272201013e-61
2.73432509107e-61
2.5176934344924e-62
3.0088353371422e-63
7.7397156077943e-64
1.5244167722077e-64
2.8331114282043e-65
1.5986212265984e-65
5.2398118996112e-66
1.2178662372182e-66
3.4373456737184e-67
2.0949607641624e-68
2.8939400766709e-69
1.5210605281131e-69
5.1422273223484e-70
3.4282929302589e-71
5.0610397652979e-72
2.6972063518311e-72
8.7551283888919e-73
2.2259745846965e-73
5.464231275478e-74
3.2549408828118e-75
1.4188378898316e-75
3.461116144152e-76
1.7377535132265e-76
0
0
0
0
0
0
0
0
0
7.0932533022372e-57
5.0653305967383e-55
7.6048252084401e-54
1.2446110203213e-52
1.6935081642745e-51
1.9797256521268e-50
4.3193451915562e-49
8.9743494435342e-49
4.4730631394513e-48
1.409991845837e-48
3.0385816786432e-65
3.798227098304e-66
0
2.3722904095158e-46
-4.8558236481562e-57
-9.9065483913199e-61
-9.0709579257749e-65
1.51361154921e-65
4.9090934652978e-89
9.7804347781327e-65
6.4807249864812e-64
4.1297758353273e-48
1.0798030965568e-60
4.6245162106316e-60
1.4613104525187e-47
7.2912801225672e-58
1.0629613361679e-40
4.6143921197239e-44
-4.7127375163318e-51
8.1781674507417e-44
3.7495019701272e-54
1.5532244211526e-45
3.9105320507885e-45
2.1878175556638e-52
4.7467026301957e-52
3.4302643232844e-47
4.3000521520335e-51
8.3378928717845e-51
1.764840175507e-50
7.234100304016e-47
1.2163658820205e-44
2.2513149154084e-49
3.5717655534609e-49
5.3218025345089e-49
7.2341807326834e-45
1.5285598584204e-48
5.3560517792325e-49
2.2287443314914e-46
4.1290090173221e-49
4.1300008917082e-47
1.8763379051104e-49
1.1942136137768e-49
1.5195058139895e-48
5.5026740124436e-51
2.343716384281e-49
1.9400978392803e-52
3.6297078507829e-53
5.74552697976e-51
1.498633431641e-54
6.4769657608077e-52
6.0789111615602e-56
1.1380896355954e-56
9.246883636177e-53
6.2129732600103e-57
5.9344605826496e-54
2.1175666131917e-59
3.951719331336e-60
3.0079033650553e-55
2.054017297119e-59
2.9526712141223e-62
6.8098771884783e-61
1.1026531530001e-63
6.6315642711111e-60
6.363700855929e-59
1.8203852450319e-59
6.4323159037167e-61
1.0355095903317e-59
6.1668721979644e-64
2.071139815663e-68
1.0338855378363e-62
6.6597847358993e-63
1.9888376776512e-70
6.0700273913077e-65
5.163977180993e-64
1.1024649593818e-64
5.3259116830535e-66
5.1354658286243e-65
5.7021716568482e-69
8.2736164626092e-66
2.411771555131e-67
8.8476872466388e-67
0
0
0
0
0
0
0
1.9515361157393e-47
1.9175328429503e-45
9.226633388293e-44
2.8950646739212e-42
6.6839217087402e-41
1.2128102518275e-39
1.7907888539134e-38
2.1915909171443e-37
2.2656070635421e-36
2.045849008161e-35
1.69123707924e-34
1.3338901328653e-33
1.0199637374045e-32
7.4935792680038e-32
5.1890417856854e-31
3.3287965389098e-30
1.9564340560518e-29
1.0476803830683e-28
5.1028809971588e-28
2.2614307025373e-27
9.1315759949947e-27
3.3659826082738e-26
1.1349141933525e-25
3.5076039660828e-25
9.9586329516504e-25
2.6033835857198e-24
6.28249806302e-24
1.4035147237232e-23
2.9117559241475e-23
5.6284263446089e-23
1.0168844626186e-22
1.721218352652e-22
2.7313591719558e-22
4.051096695859e-22
5.5474080641038e-22
6.8026426388697e-22
7.2867523574204e-22
7.2641606702737e-22
7.0666693354484e-22
6.5462475014261e-22
5.5645067284687e-22
4.2142577166816e-22
2.7494891682314e-22
1.4912111970163e-22
6.5107782507582e-23
2.2696464333467e-23
6.5939091523211e-24
1.7558207755995e-24
4.706047944531e-25
1.320353166338e-25
3.8576968131952e-26
1.1566874944912e-26
3.5277140196068e-27
1.0894778613663e-27
3.3926459414888e-28
1.0592023858443e-28
3.2944517655298e-29
1.0153224804589e-29
3.09026361751e-30
9.2787192163521e-31
2.7498791453882e-31
8.0538809901824e-32
2.3339184014066e-32
6.6978842520579e-33
1.9046492934337e-33
5.3691571979948e-34
1.5010103115113e-34
4.163162928895e-35
1.1460444204075e-35
3.13246466802e-36
8.5041928722352e-37
2.2939509653065e-37
6.1499171026977e-38
1.6391116900936e-38
4.3442370926012e-39
1.1452176991506e-39
3.0035091432401e-40
7.8383840233471e-41
2.035940623561e-41
5.2640928719946e-42
1.3551137197407e-42
3.4736900476796e-43
8.8681841135698e-44
2.2551114708125e-44
5.7127978979084e-45
1.4418885197748e-45
3.6263476256232e-46
9.0886341341776e-47
2.2707916080802e-47
5.6433412223323e-48
1.4248530737072e-48
3.0108091593915e-49
1.4461041540217e-49
0
0
0
0
0
0
1.7663086905051e-47
2.566018302318e-45
1.6677932773938e-43
6.7489511648677e-42
1.9438447440562e-40
4.2980822464212e-39
7.6482014549418e-38
1.1252490284574e-36
1.3939247151544e-35
1.4787049103292e-34
1.3591644172384e-33
1.0991614218053e-32
8.1160895044213e-32
5.7382187135765e-31
3.9628525193187e-30
2.6422983534103e-29
1.6700232669961e-28
9.8672815099575e-28
5.3934039639204e-27
2.706021566689e-26
1.2397958617166e-25
5.1719487539955e-25
1.9620842917983e-24
6.7690613259545e-24
2.1254793022476e-23
6.0844953054555e-23
1.592023052458e-22
3.8214002883988e-22
8.4555118367518e-22
1.734530963981e-21
3.3180585027331e-21
5.9479715501789e-21
1.0021596471524e-20
1.5877559592864e-20
2.3577349625435e-20
3.2447992251718e-20
4.0229614845571e-20
4.363560874505e-20
4.3624394499842e-20
4.2660065958379e-20
3.9831633555618e-20
3.4320702347e-20
2.647807084051e-20
1.7716428798298e-20
9.9433432587644e-21
4.5427042075425e-21
1.6735936169012e-21
5.1497149187763e-22
1.4386315229161e-22
3.989525443495e-23
1.1493041689034e-23
3.4484988778369e-24
1.0658509986797e-24
3.3635658412242e-25
1.0773699813086e-25
3.4812802979294e-26
1.1264423935288e-26
3.6220535180952e-27
1.150260219429e-27
3.5949272851674e-28
1.1047595294848e-28
3.341829366993e-29
9.9685910891912e-30
2.9374624790569e-30
8.56161486166e-31
2.4702988893274e-31
7.0600600405512e-32
1.9996113987959e-32
5.6152159941324e-33
1.5641325491442e-33
4.3237490556237e-34
1.1866046769917e-34
3.2342423141229e-35
8.7580438909952e-36
2.3569163333414e-36
6.3053251267538e-37
1.6773034049149e-37
4.4377502188281e-38
1.1680457681143e-38
3.0591055433061e-39
7.9735592546962e-40
2.0687740922716e-40
5.3438193512236e-41
1.3744800056829e-41
3.5207798524627e-42
8.9828682417092e-43
2.28310075429e-43
5.7812983380667e-44
1.4586652498313e-44
3.668398208488e-45
9.1753864210972e-46
2.3311453960227e-46
4.9583334914783e-47
2.3957691586092e-47
0
0
0
0
0
7.954183062116e-48
1.5699726093236e-45
1.3213034398501e-43
6.6594969106144e-42
2.3337051038122e-40
6.1675159604223e-39
1.2946754084547e-37
2.2357052038097e-36
3.2439474128897e-35
4.0220736432844e-34
4.3158650164325e-33
4.0366938964462e-32
3.3259633879634e-31
2.441490348322e-30
1.6255050299366e-29
1.0460456412713e-28
6.8469383603448e-28
4.4298193441265e-27
2.690939941688e-26
1.5115998890644e-25
7.8437635207321e-25
3.7475086780507e-24
1.6386492882983e-23
6.5151311561304e-23
2.3422883564426e-22
7.5820109500985e-22
2.203344762736e-21
5.7410855871723e-21
1.3429392520083e-20
2.8341255075262e-20
5.4501454676632e-20
9.6965287017246e-20
1.6251412752769e-19
2.607114426906e-19
4.0359224129319e-19
6.0079246813982e-19
8.4589769062981e-19
1.0896187939627e-18
1.2301711622272e-18
1.2452106825977e-18
1.2255878173174e-18
1.158275590906e-18
1.0168523113937e-18
8.0204662642548e-19
5.5131291279549e-19
3.1991095806519e-19
1.5237874686226e-19
5.9008643586734e-20
1.9144141821812e-20
5.6069045264226e-21
1.6133571206378e-21
4.7900370078721e-22
1.4802601508411e-22
4.7249844237324e-23
1.5448438474813e-23
5.1372410233966e-24
1.7241964759364e-24
5.7886388556224e-25
1.926874027255e-25
6.3152033248625e-26
2.0298803156545e-26
6.3935923182113e-27
1.9761746604946e-27
6.0083499702375e-28
1.8011827492453e-28
5.3335089831519e-29
1.5618533654702e-29
4.5267061595719e-30
1.2992663411128e-30
3.6950484840291e-31
1.0417736370822e-31
2.9132296872048e-32
8.0839984133991e-33
2.2269537484028e-33
6.092488520871e-34
1.6558694257348e-34
4.4724099406202e-35
1.2007888528187e-35
3.2056568606879e-36
8.5113798687803e-37
2.2480961998852e-37
5.9081860422698e-38
1.5452679937409e-38
4.0229452304081e-39
1.0426779401856e-39
2.6908678471012e-40
6.9157095227062e-41
1.7702934908101e-41
4.5141688872593e-42
1.1467724706586e-42
2.9034009391609e-43
7.3098489076291e-44
1.8691017635744e-44
4.0019977716265e-45
1.9459659023696e-45
0
0
0
0
0
3.9655273604658e-46
5.57247168755e-44
3.7643360334806e-42
1.6344907734987e-40
5.1550103342436e-39
1.2636868892337e-37
2.5147077886288e-36
4.1858501334417e-35
5.937224139476e-34
7.2901549316586e-33
7.8237027367762e-32
7.3800778130278e-31
6.1881514996043e-30
4.603350528203e-29
3.0663364726984e-28
1.8710612832271e-27
1.1155633245705e-26
7.2212458407176e-26
5.4246603306954e-25
4.1410955741016e-24
2.8485358088557e-23
1.7084233745353e-22
8.9152422114352e-22
4.0618066887219e-21
1.6157336967235e-20
5.6140424029997e-20
1.7061457044304e-19
4.5258929238188e-19
1.0387605760121e-18
2.0339357869201e-18
3.3640503594252e-18
4.7620324938113e-18
6.0541494835234e-18
7.3684197098846e-18
9.0162858003952e-18
1.1345316962281e-17
1.4611944875427e-17
1.8558046429939e-17
2.1732693608525e-17
2.2578654871012e-17
2.2365960693295e-17
2.142216698573e-17
1.9217658940083e-17
1.5532547941711e-17
1.0980816204483e-17
6.5799549780993e-18
3.2559384754947e-18
1.3187502090852e-18
4.4934548451024e-19
1.3792866930841e-19
4.1310182192284e-20
1.2693233377568e-20
4.0540309704274e-21
1.3397500612523e-21
4.5462357101788e-22
1.5716410883094e-22
5.4851261435744e-23
1.9129612848567e-23
6.6011239003398e-24
2.2364851581016e-24
7.4068096188838e-25
2.3953713033879e-25
7.5765451170154e-26
2.3505611919772e-26
7.1742070652456e-27
2.159379598745e-27
6.4203904659447e-28
1.8877239614774e-28
5.4926420289188e-29
1.5825290263329e-29
4.5174637287437e-30
1.2783433632409e-30
3.5878504301488e-31
9.99217415364e-32
2.7625397303431e-32
7.5848164797026e-33
2.0688028410573e-33
5.6074734190932e-34
1.5108282411065e-34
4.0474239009034e-35
1.0783637450904e-35
2.8580791781788e-36
7.5369903204091e-37
1.9779820986801e-37
5.16687188946e-38
1.3436588377436e-38
3.4791780838001e-39
8.971323306804e-40
2.3040505290015e-40
5.8942611158906e-41
1.502570812865e-41
3.8085017157231e-42
9.8022648661686e-43
2.1128474896165e-43
1.0342758309531e-43
0
0
0
0
3.1749390583019e-58
9.5080953332011e-45
1.1639766902508e-42
7.0289638926988e-41
2.7876692960764e-39
8.167333875744e-38
1.8856211118587e-36
3.5752015467411e-35
5.7281813907403e-34
7.9005364182962e-33
9.5276409731241e-32
1.0133368617242e-30
9.5584521304069e-30
8.0786132491516e-29
6.078786461323e-28
4.1345545188473e-27
2.5096198508302e-26
1.3791691764488e-25
8.5481750364458e-25
6.5346809004848e-24
5.9778955148916e-23
5.6664977526227e-22
4.7656788578693e-21
3.3016685668409e-20
1.8800597699269e-19
8.8775137577056e-19
3.4912007358467e-18
1.1465466952262e-17
3.1463809481989e-17
7.1903534226187e-17
1.3513951181115e-16
2.0273303531415e-16
2.3746841297994e-16
2.385911343886e-16
2.2930490639584e-16
2.1003123157504e-16
2.0825143663511e-16
2.1728154775176e-16
2.4006143025625e-16
2.7243138581326e-16
2.9151531821458e-16
2.9104704548142e-16
2.8251592706802e-16
2.5856179776293e-16
2.1423296679256e-16
1.5568852296016e-16
9.6220942634271e-17
4.9363495049844e-17
2.086640233216e-17
7.4592022725702e-18
2.4022948659227e-18
7.5120182882269e-19
2.3977271801197e-19
7.9412148391842e-20
2.7242879166527e-20
9.6137601486119e-21
3.4601545310286e-21
1.2572710230439e-21
4.5605030510203e-22
1.6338892989176e-22
5.7336300339567e-23
1.9609321933525e-23
6.5265342299097e-24
2.1169123943215e-24
6.7124664556916e-25
2.0882526456636e-25
6.3939890635949e-26
1.9312759037445e-26
5.7629688140382e-27
1.7005578108972e-27
4.9657079324821e-28
1.4357531863857e-28
4.1128385020537e-29
1.1679146905527e-29
3.2893850138489e-30
9.1929860857802e-31
2.5504637143473e-31
7.0269374019066e-32
1.9232954048718e-32
5.2311225500576e-33
1.4142882574544e-33
3.8018115662978e-34
1.0163882090423e-34
2.702987120656e-35
7.1521332324116e-36
1.8833026080437e-36
4.9360261762784e-37
1.2879008956516e-37
3.3458390453635e-38
8.6559043016157e-39
2.2302540371514e-39
5.7253261740148e-40
1.4611637235148e-40
3.7860330606512e-41
8.2156032530924e-42
4.0502121040878e-42
0
0
0
0
-5.6161615856843e-69
1.4603403911113e-43
1.665646685744e-41
9.4408450299902e-40
3.539391024331e-38
9.8650188001922e-37
2.1787991327879e-35
3.9717774059333e-34
6.1470069346031e-33
8.2352992486254e-32
9.7049883851142e-31
1.015618281669e-29
9.5023869684057e-29
8.0215668302577e-28
6.0635536388725e-27
4.181205842746e-26
2.593459302789e-25
1.3948395633326e-24
7.7447210704464e-24
5.344228511917e-23
5.1580302721716e-22
5.6616885188445e-21
5.4900347120121e-20
4.5254951174014e-19
2.9337898190716e-18
1.4922821306107e-17
6.2241117855595e-17
2.1750637136317e-16
6.3766151060271e-16
1.5578232566344e-15
3.1180466397048e-15
4.8994959492951e-15
5.780912925913e-15
5.7571881883353e-15
5.4385148650331e-15
4.6829156704976e-15
3.5885753261944e-15
2.8249985565646e-15
2.7592311876541e-15
2.8313413856186e-15
2.9214073663887e-15
2.9201780005769e-15
2.8547318873546e-15
2.6434782380434e-15
2.2317480372414e-15
1.6619229652521e-15
1.0586602451218e-15
5.6344425553087e-16
2.4879043910502e-16
9.335172643387e-17
3.1562757880709e-17
1.0321143906555e-17
3.4313329565952e-18
1.18207919041e-18
4.2211263277581e-19
1.5523777568648e-19
5.8259684544123e-20
2.206692267524e-20
8.336142871535e-21
3.1061762187973e-21
1.1315940084408e-21
4.0077433677414e-22
1.3768557998739e-22
4.5923453321214e-23
1.4916803915122e-23
4.7379057727525e-24
1.4773432897299e-24
4.5363402662244e-25
1.374551796849e-25
4.1153342526316e-26
1.218431322599e-26
3.5697369296646e-27
1.0355691003495e-27
2.9763998474029e-28
8.4804768191572e-29
2.3965779196784e-29
6.7205748828899e-30
1.8708735307271e-30
5.1721040352633e-31
1.4204372178547e-31
3.876535044347e-32
1.0516142057466e-32
2.8364479210639e-33
7.6086007281327e-34
2.0302271873427e-34
5.3899617869306e-35
1.4240100496765e-35
3.7446072023772e-36
9.8025620783254e-37
2.554960566357e-37
6.6312189279201e-38
1.7145103050982e-38
4.4063166727383e-39
1.1495709316813e-39
2.5113956751755e-40
1.2473244828463e-40
0
0
0
0
2.2108591501042e-76
1.61908616605e-42
1.7740133406433e-40
9.6788267902734e-39
3.5009270471531e-37
9.4353052275265e-36
2.0190319576834e-34
3.5722104486782e-33
5.3745060622636e-32
7.0150177953776e-31
8.0746323358869e-30
8.2852986922973e-29
7.6425402741143e-28
6.3941797011001e-27
4.8258758438501e-26
3.3328042694967e-25
2.1029257507181e-24
1.159672621015e-23
5.9612531801768e-23
3.4255307019029e-22
2.922498805733e-21
3.3433889959088e-20
3.6337609649846e-19
3.1243523901965e-18
2.2333684113601e-17
1.3949212287676e-16
6.7726329268681e-16
2.6427080800862e-15
8.6723122171907e-15
2.3903768635734e-14
5.3699003565391e-14
9.3429117607004e-14
1.1801236579344e-13
1.1889833281758e-13
1.126040121928e-13
9.5524379652177e-14
6.8385437186623e-14
4.2331953538302e-14
2.8066064644766e-14
2.4233772922135e-14
2.3623929810373e-14
2.3233429036582e-14
2.2486678575214e-14
2.0870385953268e-14
1.7946447112162e-14
1.3772923164873e-14
9.1146758213854e-15
5.0642013082872e-15
2.340728204012e-15
9.2016644103956e-16
3.2566858173908e-16
1.1127867164922e-16
3.8602478815959e-17
1.3871929819232e-17
5.1698801551047e-18
1.985391804711e-18
7.7808936737039e-19
3.0761513057405e-19
1.2120380907675e-19
4.7064236904595e-20
1.7847009497551e-20
6.5670690127933e-21
2.3371982412406e-21
8.0443920689542e-22
2.6847193569582e-22
8.7255802984487e-23
2.7748956052707e-23
8.6702524675411e-24
2.6693813392062e-24
8.1126594676076e-25
2.4364450633115e-25
7.2362511312518e-26
2.1267445457751e-26
6.1892255912428e-27
1.7846085325699e-27
5.1013203722811e-28
1.4463630437121e-28
4.0693440814518e-29
1.1365803994057e-29
3.1525638830972e-30
8.6868242187187e-31
2.3786199827348e-31
6.4740926140235e-32
1.7520077858439e-32
4.7152142112147e-33
1.2623288484616e-33
3.362326541362e-34
8.912265057655e-35
2.3512345606226e-35
6.1750262148382e-36
1.6146326765324e-36
4.2051115885361e-37
1.0884371421309e-37
2.8595309503224e-38
6.2893554154623e-39
3.1480809629617e-39
0
0
0
0
0
1.3854519257205e-41
1.4821247206132e-39
7.8955915993734e-38
2.7896769256118e-36
7.3478934084569e-35
1.5374902443453e-33
2.6609210086499e-32
3.9170976981247e-31
5.0044880848399e-30
5.6405305907524e-29
5.6746217169542e-28
5.1460103698754e-27
4.2451217711797e-26
3.1810540005587e-25
2.185214475907e-24
1.3817031284488e-23
7.8525238880379e-23
4.0076431615797e-22
1.989640414042e-21
1.2879682255826e-20
1.2716281699507e-19
1.4581009389171e-18
1.3235711447514e-17
1.0460500047907e-16
6.8241749277497e-16
4.2195202677333e-15
2.1695944188474e-14
8.4902769413461e-14
2.5849966914159e-13
6.6634871964995e-13
1.3509117280233e-12
1.9291964553355e-12
2.0050590039766e-12
1.9018507804446e-12
1.5870051042631e-12
1.0698183956612e-12
5.6252327299708e-13
2.6738243083122e-13
1.6869307319186e-13
1.477253699047e-13
1.4209090045586e-13
1.3728376807895e-13
1.2914786098185e-13
1.1430513660628e-13
9.1259063401394e-14
6.30732785093e-14
3.6588378258854e-14
1.7646349696744e-14
7.249172544828e-15
2.6877942712054e-15
9.6286059179247e-16
3.49778215727e-16
1.3147929307456e-16
5.1247204140822e-17
2.0586136407077e-17
8.4377243574044e-18
3.4870142792115e-18
1.4354732755574e-18
5.8217491454723e-19
2.3046995807397e-19
8.8431569399179e-20
3.2739701497254e-20
1.1677830227491e-20
4.0195587400638e-21
1.3407404437975e-21
4.3574490241713e-22
1.3871281088093e-22
4.3425155212384e-23
1.3403627210452e-23
4.085065307689e-24
1.2304298672619e-24
3.6651542510749e-25
1.0804077524373e-25
3.1537295380034e-26
9.1215984418726e-27
2.6156015653563e-27
7.4394959024992e-28
2.0998069888981e-28
5.8837197275321e-29
1.6372617681929e-29
4.5260700870876e-30
1.2433496249637e-30
3.3951233413754e-31
9.2176521484823e-32
2.4888081446889e-32
6.684444529795e-33
1.7862072368769e-33
4.7497924808498e-34
1.2571104600061e-34
3.3119925202219e-35
8.6896679572439e-36
2.2655278117005e-36
5.9943991537748e-37
1.3273800994077e-37
6.6981291767872e-38
0
0
0
0
0
9.5493663152422e-41
1.0069203058051e-38
5.2835981446157e-37
1.837943669835e-35
4.7650777494244e-34
9.8129175105528e-33
1.6711197811103e-31
2.4198194490939e-30
3.0399400124576e-29
3.3669184841062e-28
3.3277873407631e-27
2.9662337978582e-26
2.4067621814341e-25
1.7823046216932e-24
1.2124574422746e-23
7.6135474116093e-23
4.3824412893297e-22
2.2851583672909e-21
1.0864560797597e-20
5.4672687730158e-20
3.834819689466e-19
3.7460915403131e-18
3.4390857933173e-17
2.9612450009358e-16
2.0738298011105e-15
1.4354263478928e-14
8.3472088814003e-14
4.0170703624416e-13
2.2953051759787e-12
7.5863230631274e-12
1.8268345820224e-11
2.6644571438003e-11
2.6152237333608e-11
2.2494711255198e-11
1.6002874405725e-11
8.8691629956857e-12
3.9564771518946e-12
1.6196060151398e-12
8.632013511668e-13
7.0221044792409e-13
6.7370386277623e-13
6.5812289304413e-13
6.3115639600668e-13
5.7443691656109e-13
4.7490779622988e-13
3.4152005350936e-13
2.0726446796404e-13
1.0528653446463e-13
4.5797252972124e-14
1.79845916762e-14
6.7946957348353e-15
2.5917137471728e-15
1.0210731943925e-15
4.1714341950157e-16
1.7566111549812e-16
7.5447690958941e-17
3.2652926727976e-17
1.4072214757767e-17
5.9754910843614e-18
2.477373248805e-18
9.9512220217248e-19
3.8500712743247e-19
1.4300192559304e-19
5.0996643497742e-20
1.7522703321457e-20
5.8354824135562e-21
1.8957142799866e-21
6.0401351497667e-22
1.8945038935096e-22
5.8618495710015e-23
1.7912691128206e-23
5.4099951298567e-24
1.6159537092235e-24
4.7769117447982e-25
1.3984236743412e-25
4.0566804299546e-26
1.1667618601097e-26
3.328772022041e-27
9.424622863306e-28
2.6490564362312e-28
7.3946888372323e-29
2.0506491753501e-29
5.6511332779649e-30
1.5480046021884e-30
4.2161124741294e-31
1.1419786949431e-31
3.07684128743e-32
8.2478774709432e-33
2.2001571742151e-33
5.8412378355775e-34
1.5441194513537e-34
4.0554299551781e-35
1.0808123150787e-35
2.4096042984457e-36
1.2261996294971e-36
0
0
0
5.7384494586599e-69
1.9105707131142e-54
5.4571378119651e-40
5.7064909090355e-38
2.9668007561963e-36
1.0216889043765e-34
2.6206277003541e-33
5.3367920868706e-32
8.982824111023e-31
1.2848237781309e-29
1.5933273300044e-28
1.7402982848779e-27
1.6947401408101e-26
1.487055077426e-25
1.1866920336261e-24
8.6592208670995e-24
5.8121493174802e-23
3.606117225711e-22
2.0707545982005e-21
1.0933243184716e-20
5.2626654979328e-20
2.3875766577401e-19
1.2031990831827e-18
8.102443181087e-18
6.3069568338665e-17
4.9969375384482e-16
3.6305938412634e-15
2.5325022172085e-14
1.588730433711e-13
9.2690976752273e-13
5.0452098587387e-12
2.530537781392e-11
1.35569872537e-10
2.429376818897e-10
2.797800554577e-10
2.0622542947139e-10
1.1208386190361e-10
4.6435363351317e-11
1.6038365555905e-11
6.3007695978533e-12
3.559533233738e-12
2.7832346691893e-12
2.6062871563702e-12
2.5345489539577e-12
2.4240600428241e-12
2.2126886974036e-12
1.8615336294379e-12
1.3903683522312e-12
8.944995733282e-13
4.8908725846003e-13
2.3025374842207e-13
9.7352177682286e-14
3.9181259102545e-14
1.5787364284042e-14
6.5472094842274e-15
2.8132611780787e-15
1.2454291913326e-15
5.6187786724179e-16
2.5522760210037e-16
1.1542434004079e-16
5.1460562125885e-17
2.2419497046409e-17
9.4664360650501e-18
3.8457461798458e-18
1.4952062533606e-18
5.5528695172419e-19
1.9743019613169e-19
6.7598480121998e-20
2.2458668433517e-20
7.2918211571262e-21
2.3256306319903e-21
7.3085044830413e-22
2.2666470983993e-22
6.9435525568081e-23
2.1023804628828e-23
6.2960046805136e-24
1.8661387250015e-24
5.4781913481921e-25
1.5937011507251e-25
4.5971026733978e-26
1.3154469436376e-26
3.7355709658893e-27
1.0531756264804e-27
2.948873480731e-28
8.2027966887587e-29
2.2674936495771e-29
6.2305516751044e-30
1.702206961114e-30
4.6249277612959e-31
1.24996643794e-31
3.3611030089005e-32
8.9934230610801e-33
2.3956186413128e-33
6.3389196712732e-34
1.7018449539102e-34
3.8200794600007e-35
1.9610269181093e-35
0
0
0
8.7710457413781e-67
1.5065296116744e-52
2.6378853845183e-39
2.7475556663459e-37
1.4214170925091e-35
4.8664094454874e-34
1.2398829799204e-32
2.5062798502753e-31
4.1843549238228e-30
5.9319979206942e-29
7.2859705595661e-28
7.8738109097936e-27
7.5783543274576e-26
6.5628460109471e-25
5.1602191426834e-24
3.7083543961312e-23
2.4509724632436e-22
1.4975102342581e-21
8.4964837458455e-21
4.4758722396153e-20
2.1769773832603e-19
9.7832872823712e-19
4.2503617696741e-18
2.0117990304118e-17
1.1205261369474e-16
6.9897206879671e-16
4.4512304894962e-15
2.7381757112898e-14
1.6817200293666e-13
1.016071786457e-12
5.358818231861e-12
2.9076287632074e-11
1.2568372773006e-10
5.998929043744e-10
1.1393913324505e-09
1.0683136370736e-09
6.6484043253747e-10
3.0036558456353e-10
1.392200913115e-10
7.4569161217017e-11
4.0044646550738e-11
1.9835963175592e-11
1.0501997666718e-11
7.8393915411252e-12
7.0293075455909e-12
6.3824649624222e-12
5.5137833152246e-12
4.3463079921466e-12
3.0125617091673e-12
1.7947645599492e-12
9.2234797957263e-13
4.2333727327274e-13
1.8332409782509e-13
7.884676451085e-14
3.4717936738342e-14
1.5786619953625e-14
7.3776562659819e-15
3.5069416254744e-15
1.6765227356208e-15
7.9788784162574e-16
3.7468536753744e-16
1.7216132298304e-16
7.673596450898e-17
3.2891765450995e-17
1.3457698565188e-17
5.2334672689314e-18
1.9351965184713e-18
6.8401364152923e-19
2.3306469295275e-19
7.7236606492599e-20
2.5070929389416e-20
8.0063149281545e-21
2.5211044398974e-21
7.8364132758182e-22
2.4060950144888e-22
7.3024116374791e-23
2.1922355643995e-23
6.5145496354699e-24
1.9175354196704e-24
5.5939320928326e-25
1.6181845859201e-25
4.6437995212533e-26
1.3226087536904e-26
3.7399342150785e-27
1.0503151576836e-27
2.9304531532658e-28
8.1252181320926e-29
2.2394243594826e-29
6.1368625353549e-30
1.6724945962978e-30
4.5340445002285e-31
1.222879933791e-31
3.2828680813216e-32
8.7528585068421e-33
2.3675840810987e-33
5.3509602216983e-34
2.7719255095808e-34
0
0
0
2.9433403849878e-67
2.3727379469783e-52
1.0934035205261e-38
1.1383292000743e-36
5.8800585622983e-35
2.0082740630063e-33
5.0996303977526e-32
1.0264553501472e-30
1.7050235349925e-29
2.4029683771694e-28
2.9318906587534e-27
3.1444483002367e-26
3.0004508425049e-25
2.5724202583617e-24
1.9988134508758e-23
1.4173037848906e-22
9.2290742383058e-22
5.5479625024603e-21
3.0958360126235e-20
1.6096163355852e-19
7.7938555987027e-19
3.5099612184143e-18
1.4801260504913e-17
6.0166069587717e-17
2.5104436819695e-16
1.1289338964527e-15
5.5877115609964e-15
2.8805926556509e-14
1.5055292270271e-13
8.576804974864e-13
4.5261112512068e-12
2.3758844242866e-11
9.1458606774464e-11
3.7682323810948e-10
9.9020451679118e-10
3.0405345127833e-09
6.2212814736388e-09
5.5057945265455e-09
4.2774619322817e-09
2.8731635175568e-09
1.2371341017605e-09
2.746997521109e-10
3.5597626677884e-11
1.4081651691985e-11
1.3209921408306e-11
1.2694065948856e-11
1.1688250978094e-11
9.9125126276523e-12
7.4876591749292e-12
4.9202293854547e-12
2.813802736026e-12
1.437975758315e-12
6.8681596187671e-13
3.2128240150305e-13
1.5204721157533e-13
7.3732738302337e-14
3.6572138247831e-14
1.8395706587154e-14
9.291136318593e-15
4.6706766648707e-15
2.3188811715412e-15
1.1281274882603e-15
5.3302808525163e-16
2.4219042630969e-16
1.0482225811689e-16
4.2921675412294e-17
1.6596033056204e-17
6.0840506073997e-18
2.1334400409301e-18
7.2324798236433e-19
2.3923720657036e-19
7.7693266502005e-20
2.4852243985675e-20