/*--------------------------------*- C++ -*----------------------------------*\
  =========                 |
  \\      /  F ield         | OpenFOAM: The Open Source CFD Toolbox
   \\    /   O peration     | Website:  https://openfoam.org
    \\  /    A nd           | Version:  7
     \\/     M anipulation  |
\*---------------------------------------------------------------------------*/
FoamFile
{
    version     2.0;
    format      ascii;
    class       volScalarField;
    location    "3.6";
    object      alpha.water;
}
// * * * * * * * * * * * * * * * * * * * * * * * * * * * * * * * * * * * * * //

dimensions      [0 0 0 0 0 0 0];

internalField   nonuniform List<scalar> 
6000
(
0
0
0
0
0
0
0
0
0
0
0
0
0
0
0
0
0
0
0
0
0
0
0
0
0
0
0
0
0
0
0
0
0
0
0
0
0
0
0
0
0
0
0
0
0
0
0
0
0
0
0
0
0
0
0
0
0
0
0
0
0
0
0
0
0
0
0
0
0
0
0
0
0
0
0
0
0
0
0
0
0
0
0
0
0
0
0
0
0
0
0
0
0
0
0
0
0
0
0
0
0
0
0
0
0
0
0
0
0
0
0
0
0
0
0
0
0
0
0
0
0
0
0
0
0
0
0
0
0
0
0
0
0
0
0
0
0
0
0
0
0
0
0
0
0
0
0
0
0
0
0
0
0
0
0
0
0
0
0
0
0
0
0
0
0
0
0
0
0
0
0
0
0
0
0
0
0
0
0
0
0
0
0
0
0
0
0
0
0
0
0
0
0
0
0
0
0
0
0
0
0
0
0
0
0
0
0
0
0
0
0
0
0
0
0
0
0
0
0
0
0
0
0
0
0
0
0
0
0
0
0
0
0
0
0
0
0
0
0
0
0
0
0
0
0
0
0
0
0
0
0
0
0
0
0
0
0
0
0
0
0
0
0
0
0
0
0
0
0
0
0
0
0
0
0
0
0
0
0
0
0
0
0
0
0
0
0
0
0
0
0
0
0
0
0
0
0
0
0
0
0
0
0
0
0
0
0
0
0
0
0
0
0
0
0
0
0
0
0
0
0
0
0
0
0
0
0
0
0
0
0
0
0
0
0
0
0
0
0
0
0
0
0
0
0
0
0
0
0
0
0
0
0
0
0
0
0
0
0
0
0
0
0
0
0
0
0
0
0
0
0
0
0
0
0
0
0
0
0
0
0
0
0
0
0
0
0
0
0
0
0
0
0
0
0
0
0
0
0
0
0
0
0
0
0
0
0
0
0
7.2269474650401e-85
8.3622976489023e-83
4.812623562209e-81
1.8393245643546e-79
5.2554448596168e-78
1.1968971790021e-76
2.2642013072238e-75
3.6579334641081e-74
5.1531284729902e-73
6.4298936572706e-72
7.195290176359e-71
7.2932800262284e-70
6.7521693737406e-69
5.7494881999554e-68
4.5295111750084e-67
3.3183669788672e-66
2.2707988713383e-65
1.4571496343585e-64
8.7984117503541e-64
5.0143495738946e-63
2.7047758076215e-62
1.3843212688238e-61
6.7376983936051e-61
3.124966254304e-60
1.3837452259615e-59
5.8599100005121e-59
2.3770530284225e-58
9.2498914153075e-58
3.4575963569022e-57
1.243080919173e-56
4.3035058778318e-56
1.4362151175284e-55
4.6252631633355e-55
1.4387691166546e-54
4.3268895908453e-54
1.2590988719869e-53
3.5480616660936e-53
9.6894340986194e-53
2.5662097164987e-52
6.5957868207708e-52
1.6462681849833e-51
3.9926272480934e-51
9.4144004003526e-51
2.1594420698772e-50
4.820962741247e-50
1.0480602369733e-49
2.2197635208035e-49
4.582404863926e-49
9.2243508575757e-49
1.811403185882e-48
3.471403759856e-48
6.4948980960856e-48
1.1867968548516e-47
2.1187057041483e-47
3.6965977965968e-47
6.3053991019959e-47
1.0518115245009e-46
1.7163621714511e-46
2.7406395837207e-46
4.2833937514019e-46
6.554422115065e-46
9.8220906458537e-46
1.4418018420371e-45
2.073692015874e-45
2.9229514192815e-45
4.0386417544355e-45
5.4711702869764e-45
7.268552186449e-45
9.4716774769277e-45
1.210884634817e-44
1.5190018462328e-44
1.8701386544842e-44
2.260096632839e-44
2.6815932482083e-44
3.1242412753454e-44
3.5748065420653e-44
4.017770553951e-44
4.4361767072993e-44
4.812689525876e-44
5.130793956691e-44
5.3760045810754e-44
5.5369616524326e-44
5.6063118111932e-44
5.5812592975218e-44
5.4637396057188e-44
5.2602047106462e-44
4.9810473018442e-44
4.6397341653471e-44
4.2517494527961e-44
3.8334561147289e-44
1.9343391645131e-43
0
0
0
0
0
0
0
-6.6855316335706e-75
-7.3989014577564e-73
-4.0776934638713e-71
-1.4920797386741e-69
-4.0777929951582e-68
-8.87796033964e-67
-1.6038084810803e-65
-2.472532482626e-64
-3.3204538291481e-63
-3.9456189796835e-62
-4.19993415058e-61
-4.0447475967312e-60
-3.5530989817776e-59
-2.8664930210878e-58
-2.1361210990385e-57
-1.4776464467183e-56
-9.5285101612952e-56
-5.7488538440674e-55
-3.2555223647738e-54
-1.735169541268e-53
-8.725319415822e-53
-4.1478877189428e-52
-1.8673542381152e-51
-7.9724203956687e-51
-3.23135201788e-50
-1.2442839643252e-49
-4.5532813223025e-49
-1.5830750151501e-48
-5.2245809624864e-48
-1.6335968586785e-47
-4.8227011280638e-47
-1.3362603557513e-46
-3.4380460088263e-46
-8.0468643488797e-46
-1.6365090399437e-45
-2.5185052159908e-45
-8.7382307415106e-46
1.4344424380895e-44
8.1618676154672e-44
3.2019942834103e-43
1.0706087472962e-42
3.2447884697074e-42
9.1566334149297e-42
2.4404819599199e-41
6.1964392933342e-41
1.507282197475e-40
3.5266300890378e-40
7.9600275622582e-40
1.7371644094432e-39
3.6721520165423e-39
7.5299691082969e-39
1.4996637570215e-38
2.9038877380385e-38
5.472021251546e-38
1.0042623503576e-37
1.7963441679883e-37
3.1336864012957e-37
5.3345811660341e-37
8.8666145738322e-37
1.4396069251755e-36
2.2843313583394e-36
3.5439741371831e-36
5.3779141948502e-36
7.9853605739696e-36
1.1606172020686e-35
1.6517554897262e-35
2.3025342909597e-35
3.144885910606e-35
4.2098935359625e-35
5.5249507189243e-35
7.1104244795504e-35
8.9760796725545e-35
1.1117623318493e-34
1.3513797968626e-34
1.6124473856496e-34
1.8890146985424e-34
2.1733139974217e-34
2.4560631594863e-34
2.7269428536676e-34
2.9752167768688e-34
3.1904433923983e-34
3.3632126649991e-34
3.4858344142216e-34
3.5529075226522e-34
3.5617112346596e-34
3.512379536967e-34
3.4078442552125e-34
3.2535584357512e-34
3.0570351262856e-34
2.8272546786402e-34
2.574004060765e-34
2.3072135766774e-34
1.1480776454412e-33
0
0
0
0
0
0
-2.9657548967565e-73
-3.3781400935106e-71
-1.9160912367347e-69
-7.2158509241457e-68
-2.0297453636368e-66
-4.5488696620291e-65
-8.460537786409e-64
-1.3432428790658e-62
-1.8583281713234e-61
-2.2758023527253e-60
-2.4979211054699e-59
-2.482056385621e-58
-2.2512745757201e-57
-1.8769199416658e-56
-1.4468718149565e-55
-1.0365517418847e-54
-6.9318651296459e-54
-4.3440332031472e-53
-2.5598243995867e-52
-1.4227453081875e-51
-7.4787820939878e-51
-3.7272542461773e-50
-1.7650884797527e-49
-7.9586377631031e-49
-3.4229682360924e-48
-1.406652216309e-47
-5.5316750257172e-47
-2.0846054442681e-46
-7.5378921362731e-46
-2.6184920265851e-45
-8.7478844446708e-45
-2.8134701923771e-44
-8.7190798970756e-44
-2.6058907328858e-43
-7.5168393447629e-43
-2.0941772454531e-42
-5.6385330004361e-42
-1.468042515907e-41
-3.6978180086228e-41
-9.0150751806062e-41
-2.1279348329982e-40
-4.8643292329839e-40
-1.0770381489526e-39
-2.3099400201693e-39
-4.7983272496312e-39
-9.6512181832364e-39
-1.8787347191406e-38
-3.5367210124102e-38
-6.4309364460523e-38
-1.1275117897816e-37
-1.9010818845157e-37
-3.0702776555464e-37
-4.7196382795386e-37
-6.8326989960582e-37
-9.1360109092318e-37
-1.0820825653832e-36
-1.0083038100659e-36
-3.4104431489185e-37
1.5457940011106e-36
5.6966496094799e-36
1.376078336077e-35
2.8219743951672e-35
5.2645107063899e-35
9.1964305270863e-35
1.5269909408599e-34
2.4312805131464e-34
3.7331427623862e-34
5.549355029065e-34
8.0085951541121e-34
1.1244255868847e-33
1.538423499436e-33
2.053803937793e-33
2.6782032585709e-33
3.4144147592425e-33
4.2589787745244e-33
5.2010860895997e-33
6.2219857246974e-33
7.2950549907981e-33
8.3866275674747e-33
9.457590355371e-33
1.0465663046026e-32
1.1368180041403e-32
1.212511767092e-32
1.2702063728965e-32
1.3072819770225e-32
1.322136162744e-32
1.3142955680713e-32
1.2844326872949e-32
1.2342884584106e-32
1.1665118071762e-32
1.0844359499964e-32
9.9181687065818e-33
8.9256143103096e-33
4.4796400600027e-32
0
0
0
0
0
9.8457695460598e-75
-1.5589767931554e-71
-1.8225170888456e-69
-1.036388560991e-67
-3.8914730344561e-66
-1.0892005393482e-64
-2.4267582701498e-63
-4.4854454488693e-62
-7.0758591593359e-61
-9.7264479373968e-60
-1.1835822545131e-58
-1.2909865542122e-57
-1.2749583201596e-56
-1.149548895894e-55
-9.5288663224773e-55
-7.3048451103901e-54
-5.2053824745753e-53
-3.4633276213829e-52
-2.1598585350549e-51
-1.2669043870058e-50
-7.0110221642899e-50
-3.6705510657519e-49
-1.822504476275e-48
-8.6013426907694e-48
-3.8664157616183e-47
-1.6584502661072e-46
-6.7996542349504e-46
-2.6689494229196e-45
-1.0043569272518e-44
-3.6283334339185e-44
-1.2598874077607e-43
-4.2097549555685e-43
-1.3550089116763e-42
-4.2054758302174e-42
-1.2597185475534e-41
-3.6449170718418e-41
-1.019535724994e-40
-2.758919745672e-40
-7.2276362916214e-40
-1.8342210239661e-39
-4.5119307585182e-39
-1.0763812864274e-38
-2.4916161960395e-38
-5.5989517484283e-38
-1.2218643132503e-37
-2.5905406103388e-37
-5.337637344693e-37
-1.069097510828e-36
-2.0820443468988e-36
-3.9430808721516e-36
-7.2626206888542e-36
-1.3009700473006e-35
-2.2663158162765e-35
-3.8385310026178e-35
-6.319020795432e-35
-1.0105108227228e-34
-1.5685397309503e-34
-2.3605878823048e-34
-3.4388094864378e-34
-4.8376719582814e-34
-6.5492401438782e-34
-8.4868637117259e-34
-1.0436087112511e-33
-1.199335428347e-33
-1.2495689555537e-33
-1.0947862491521e-33
-5.9572087144932e-34
4.3103494163951e-34
2.213729078885e-33
5.020848556651e-33
9.149879246201e-33
1.4908676012026e-32
2.2589599789267e-32
3.2437722688427e-32
4.4615633999606e-32
5.9168493747496e-32
7.5993748588082e-32
9.4820141503726e-32
1.1520017531565e-31
1.3651900269272e-31
1.5802091433283e-31
1.7885241003587e-31
1.9811858553581e-31
2.1494761082014e-31
2.2855674460898e-31
2.3831286329842e-31
2.437809788364e-31
2.4475561512064e-31
2.4127199290829e-31
2.3359641573729e-31
2.2219768207316e-31
2.0770341874221e-31
1.9084666373328e-31
1.724086691158e-31
8.7038793333718e-31
0
0
0
0
0
5.6111277925659e-73
-4.0549089729381e-70
-4.906631064042e-68
-2.8097794913804e-66
-1.0557852511013e-64
-2.9501516381738e-63
-6.5545821262618e-62
-1.2073749661811e-60
-1.8975069228286e-59
-2.5979951002938e-58
-3.1485628864339e-57
-3.4201070334882e-56
-3.3636328191998e-55
-3.0202079431086e-54
-2.4932064410816e-53
-1.9035009364978e-52
-1.3509604646348e-51
-8.9527986221781e-51
-5.561565461996e-50
-3.2498021161809e-49
-1.7917355750623e-48
-9.3464084895087e-48
-4.6243174842524e-47
-2.1749975482899e-46
-9.74464215505e-46
-4.1665783008987e-45
-1.7031089363415e-44
-6.6655700727891e-44
-2.5014606694459e-43
-9.013501783994e-43
-3.1223115681605e-42
-1.0409805949631e-41
-3.3439426571553e-41
-1.0359987708735e-40
-3.0984852207487e-40
-8.9538212228242e-40
-2.5020202385192e-39
-6.7659476410122e-39
-1.7718740348793e-38
-4.4967089773314e-38
-1.1065914151588e-37
-2.6422004604389e-37
-6.1244756212831e-37
-1.378857818835e-36
-3.0166489617367e-36
-6.4161859856344e-36
-1.3272514770786e-35
-2.6712582214616e-35
-5.2325335768e-35
-9.9786818688213e-35
-1.8531667075821e-34
-3.3522291391573e-34
-5.9075799631779e-34
-1.0143785535745e-33
-1.6972239163113e-33
-2.7671552003865e-33
-4.3959972672348e-33
-6.8037112886662e-33
-1.0256176736685e-32
-1.5052252446385e-32
-2.1495095266375e-32
-2.9842709541741e-32
-4.0233788210266e-32
-5.258744249458e-32
-6.6479583913206e-32
-8.100439320015e-32
-9.4635940412017e-32
-1.0511160106334e-31
-1.0936403743196e-31
-1.0353056992261e-31
-8.3066250271235e-32
-4.2978872059853e-32
2.1809586445056e-32
1.1598892883087e-31
2.4330859329557e-31
4.0600149519097e-31
6.0425277405181e-31
8.3578877352466e-31
1.0956570439081e-30
1.3762518309771e-30
1.6676126893857e-30
1.9579899267551e-30
2.2346345642708e-30
2.4847381697414e-30
2.6964247351191e-30
2.8596867989993e-30
2.9671631214306e-30
3.014674693557e-30
3.0014665660829e-30
2.9301399580689e-30
2.8062965614122e-30
2.6379493155778e-30
2.4347768179094e-30
2.2073094493023e-30
1.1177685330506e-29
0
0
0
0
9.5861364819769e-85
1.5947382023166e-71
-6.9472660911255e-69
-8.7627317561687e-67
-5.0632867862312e-65
-1.9063050635706e-63
-5.3231874668484e-62
-1.1804146841805e-60
-2.1686702916244e-59
-3.3979564646334e-58
-4.6370742613899e-57
-5.6003803724775e-56
-6.0617476253482e-55
-5.9400532793136e-54
-5.3140389130434e-53
-4.3706237354961e-52
-3.3245527711443e-51
-2.350825656043e-50
-1.5521759358959e-49
-9.6071270285729e-49
-5.5934600731339e-48
-3.0728398245623e-47
-1.5972414552379e-46
-7.8750392360754e-46
-3.6911739515343e-45
-1.6481455667116e-44
-7.023576234995e-44
-2.8615235427253e-43
-1.1163422727801e-42
-4.1762840302157e-42
-1.5002355797286e-41
-5.1814025725794e-41
-1.7224913699763e-40
-5.5176915826938e-40
-1.7048486720408e-39
-5.0857038901372e-39
-1.4660058528852e-38
-4.0869399192252e-38
-1.102744854714e-37
-2.8819194261675e-37
-7.2998728109186e-37
-1.7933052460636e-36
-4.2752415385618e-36
-9.896482004598e-36
-2.2255943118627e-35
-4.8648903859699e-35
-1.0341062290275e-34
-2.13851397194e-34
-4.3041821253945e-34
-8.4346039329882e-34
-1.6098496235871e-33
-2.9935779458933e-33
-5.4250691038348e-33
-9.583859100549e-33
-1.6507923002859e-32
-2.7729503659718e-32
-4.5431081233165e-32
-7.2605575111699e-32
-1.1319200061701e-31
-1.7214254708129e-31
-2.5536161038147e-31
-3.6944535881914e-31
-5.2114687948611e-31
-7.1650243332365e-31
-9.5958390401388e-31
-1.2508940731729e-30
-1.5854938677128e-30
-1.951037740788e-30
-2.3259823161215e-30
-2.6783064497403e-30
-2.965117126625e-30
-3.1334954025332e-30
-3.1228463506809e-30
-2.8688542134473e-30
-2.308920894482e-30
-1.3887102891021e-30
-6.9173309635932e-32
1.6667640798958e-30
3.8087603201562e-30
6.3157365690971e-30
9.1153628934756e-30
1.2106730457987e-29
1.5166188647279e-29
1.8155898614662e-29
2.0934268227416e-29
2.3367152978702e-29
2.5338581601439e-29
2.6759815924102e-29
2.7575773403064e-29
2.7768190562843e-29
2.7355328112177e-29
2.6388446150197e-29
2.4945646267159e-29
2.3123936605009e-29
2.1030498230754e-29
1.0656288360581e-28
0
0
0
0
5.5952789769837e-83
3.0136611855195e-70
-8.801966803226e-68
-1.166791063966e-65
-6.8141664362478e-64
-2.572656505773e-62
-7.1830973411027e-61
-1.5904737077991e-59
-2.9154692872678e-58
-4.5557306521551e-57
-6.1984529919442e-56
-7.4622874981779e-55
-8.0502705294745e-54
-7.8617993446952e-53
-7.0088782477047e-52
-5.7443569860304e-51
-4.3540563143043e-50
-3.067874565245e-49
-2.0184216665135e-48
-1.244854895563e-47
-7.2220906759259e-47
-3.9535253114808e-46
-2.0477839735891e-45
-1.0061055347346e-44
-4.6993977723931e-44
-2.0910818010346e-43
-8.8806256567745e-43
-3.6058326249763e-42
-1.4019833875447e-41
-5.2274294177091e-41
-1.8716593490225e-40
-6.4432001243882e-40
-2.1350953852805e-39
-6.8177951669431e-39
-2.1000057277063e-38
-6.245356419483e-38
-1.7948927587356e-37
-4.9891289146556e-37
-1.3423145782217e-36
-3.4982056544462e-36
-8.8368411887555e-36
-2.1651655973735e-35
-5.1486431743549e-35
-1.1889180264099e-34
-2.6674958553175e-34
-5.8179475323545e-34
-1.2341227902268e-33
-2.547212374302e-33
-5.1176859091057e-33
-1.0012796166217e-32
-1.9084039182297e-32
-3.5445957546491e-32
-6.4177279457731e-32
-1.1330236073727e-31
-1.9509782912594e-31
-3.2773425547769e-31
-5.3719733704966e-31
-8.5933150392409e-31
-1.3417108275773e-30
-2.0448771701993e-30
-3.0423166011924e-30
-4.4184103004084e-30
-6.2635469020618e-30
-8.665677570034e-30
-1.1697885516917e-29
-1.5402058435897e-29
-1.9769485265968e-29
-2.472008240029e-29
-3.0082862119511e-29
-3.5581007784727e-29
-4.0825308201897e-29
-4.5319532288897e-29
-4.8480462185865e-29
-4.9673726941744e-29
-4.8264413439572e-29
-4.3678950957569e-29
-3.5472367672436e-29
-2.3393157224246e-29
-7.4370971391577e-30
1.2118270866914e-29
3.4705060543134e-29
5.9485987815345e-29
8.5404724769788e-29
1.1126155677272e-28
1.3580666782782e-28
1.5784082451119e-28
1.7631212522573e-28
1.9039801153969e-28
1.9956379842501e-28
2.035922060167e-28
2.0258221902777e-28
1.969194391091e-28
1.8722335166653e-28
1.7427916700573e-28
1.5896288847532e-28
8.0435328238039e-28
0
0
0
0
1.621444999816e-81
4.2599575293546e-69
-8.7711243263212e-67
-1.2348134231886e-64
-7.3012537477693e-63
-2.7662164756597e-61
-7.7259263670318e-60
-1.708629497653e-58
-3.1257601093579e-57
-4.8720975545664e-56
-6.6101872094449e-55
-7.9338123342101e-54
-8.5316954829903e-53
-8.3045475465446e-52
-7.3786829810828e-51
-6.0267675682101e-50
-4.5523206799045e-49
-3.1963941205853e-48
-2.0956102682842e-47
-1.2879179696899e-46
-7.4456149632692e-46
-4.0615286900133e-45
-2.0963183739047e-44
-1.0263293368067e-43
-4.7770368354346e-43
-2.1181883710551e-42
-8.9643561001771e-42
-3.6271759041521e-41
-1.4053990579405e-40
-5.2221047083112e-40
-1.8633409416636e-39
-6.3926867235271e-39
-2.1111748406929e-38
-6.718704395218e-38
-2.0625621273883e-37
-6.1136406091471e-37
-1.7512548632703e-36
-4.8519555466601e-36
-1.3011933180432e-35
-3.3802104066193e-35
-8.5118347951328e-35
-2.0790428278788e-34
-4.928690208387e-34
-1.1346953838248e-33
-2.5383078387856e-33
-5.5201462621482e-33
-1.1676411892146e-32
-2.4033651328731e-32
-4.8158049092133e-32
-9.3979404009427e-32
-1.7868002084128e-31
-3.3109512338213e-31
-5.9814471712806e-31
-1.0538259793737e-30
-1.8111824986908e-30
-3.0373621150601e-30
-4.9713086728724e-30
-7.9427556428293e-30
-1.2390002781381e-29
-1.8872546417003e-29
-2.8073198524463e-29
-4.0783194106403e-29
-5.7863382769134e-29
-8.0175408953438e-29
-1.0847923014331e-28
-1.432976330602e-28
-1.8475447245651e-28
-2.3240060681873e-28
-2.850488765387e-28
-3.4064548476667e-28
-3.9620812326806e-28
-4.4785959926455e-28
-4.9097857155325e-28
-5.204762226974e-28
-5.3119037159964e-28
-5.1836894245811e-28
-4.7819604567174e-28
-4.0829977482271e-28
-3.0817443915858e-28
-1.7945352618306e-28
-2.5983758538718e-29
1.4632623735961e-28
3.2988013357956e-28
5.1595814575787e-28
6.9541186779087e-28
8.5941179036532e-28
1.0001624112261e-27
1.1115050252628e-27
1.1893447528166e-27
1.2318631362454e-27
1.2395064453005e-27
1.2147680026952e-27
1.1618061580659e-27
1.0859549681987e-27
9.93190752108e-28
5.0103768988395e-27
0
0
0
0
3.1168728202902e-80
4.8043801633962e-68
-7.131463171628e-66
-1.0812591413856e-63
-6.4855714360203e-62
-2.4675865414114e-60
-6.8966951374724e-59
-1.5238126268759e-57
-2.7825678758087e-56
-4.3269307290198e-55
-5.8546604170827e-54
-7.0063601298814e-53
-7.5109929174214e-52
-7.2874949557301e-51
-6.4536272165042e-50
-5.2534461914359e-49
-3.9546367966212e-48
-2.7671472203349e-47
-1.807876836691e-46
-1.1071949527331e-45
-6.3783383710505e-45
-3.4670725206839e-44
-1.7831744370007e-43
-8.6993025083711e-43
-4.0347461456507e-42
-1.7827141943578e-41
-7.517889913619e-41
-3.0311394714265e-40
-1.1703036839856e-39
-4.3331894196506e-39
-1.5407052193146e-38
-5.2671790535468e-38
-1.7333607555838e-37
-5.4969708368474e-37
-1.6815954725635e-36
-4.9670082931837e-36
-1.4178465292408e-35
-3.914592341132e-35
-1.0461814801672e-34
-2.7083872909508e-34
-6.7967179562613e-34
-1.6544616142328e-33
-3.9088702153525e-33
-8.9688347535154e-33
-1.9996316657584e-32
-4.334299291517e-32
-9.1380978358825e-32
-1.8748298378928e-31
-3.7447836792163e-31
-7.2849923669929e-31
-1.3808196144448e-30
-2.5509847539287e-30
-4.595039019665e-30
-8.0726880814101e-30
-1.3836358165981e-29
-2.3142847229285e-29
-3.7784118040895e-29
-6.0227445939036e-29
-9.3746665096023e-29
-1.4251632426335e-28
-2.1163063075147e-28
-3.0700145336773e-28
-4.3508739516578e-28
-6.0241231181667e-28
-8.1484942523369e-28
-1.0766776980776e-27
-1.3894592960621e-27
-1.7508365234232e-27
-2.1533960213786e-27
-2.5837870860619e-27
-3.0222984599173e-27
-3.4430839509285e-27
-3.8151758125693e-27
-4.1043364681576e-27
-4.2756822200075e-27
-4.2968830478345e-27
-4.1416220962976e-27
-3.7929104820135e-27
-3.245818220826e-27
-2.5092133142135e-27
-1.6061999803293e-27
-5.731025801621e-28
5.4296859162049e-28
1.6877399948055e-27
2.8041911191353e-27
3.8372602387963e-27
4.7383002890672e-27
5.4687889462334e-27
6.0029099717119e-27
6.3287846113533e-27
6.4483143425465e-27
6.375769989905e-27
6.135401577694e-27
5.7584308274376e-27
5.2798169225453e-27
2.651745010262e-26
0
0
0
0
4.4757273902522e-79
4.503035747794e-67
-4.8360308935233e-65
-8.0522899916719e-63
-4.9107943689452e-61
-1.8778253967176e-59
-5.25413731566e-58
-1.1600889139186e-56
-2.114875997418e-55
-3.2813077305506e-54
-4.4282757681414e-53
-5.2842276168887e-52
-5.6476154369193e-51
-5.4622118032227e-50
-4.8214192836604e-49
-3.9116905197212e-48
-2.9346190695387e-47
-2.046366890017e-46
-1.3323287519743e-45
-8.1310433950938e-45
-4.6676685549886e-44
-2.5282389715583e-43
-1.2957035233207e-42
-6.2986550479387e-42
-2.9108981155079e-41
-1.2815524661054e-40
-5.3850719193305e-40
-2.1634145719527e-39
-8.3227801041775e-39
-3.0705172274477e-38
-1.0878165421644e-37
-3.7054832518238e-37
-1.2150244597131e-36
-3.8392606938178e-36
-1.1702343544886e-35
-3.4440751877804e-35
-9.7956430796105e-35
-2.6947355888705e-34
-7.1756760712879e-34
-1.8509449677103e-33
-4.6281799698896e-33
-1.1225298231882e-32
-2.6425629817858e-32
-6.0415251825338e-32
-1.3421517271882e-31
-2.8987934245811e-31
-6.0898693185813e-31
-1.2450201145474e-30
-2.4780715719531e-30
-4.8039781206064e-30
-9.074195046142e-30
-1.6706875338898e-29
-2.9992497186785e-29
-5.2517106408171e-29
-8.9720258055866e-29
-1.4959009618002e-28
-2.4347192815002e-28
-3.8692749846572e-28
-6.0053072027505e-28
-9.1042639919899e-28
-1.3484207701384e-27
-1.9513307069417e-27
-2.7593102835929e-27
-3.8129178852382e-27
-5.1487995384324e-27
-6.7940504878794e-27
-8.7595683985915e-27
-1.1033000476276e-26
-1.3572167164935e-26
-1.6300056861427e-26
-1.9102565257305e-26
-2.1830045455215e-26
-2.4303412270769e-26
-2.6325015877552e-26
-2.7693820966154e-26
-2.8223694802208e-26
-2.7762946555308e-26
-2.6212802642395e-26
-2.3542358802145e-26
-1.9797781864259e-26
-1.5104139509575e-26
-9.6591403901288e-27
-3.7191343524269e-27
2.4212193344284e-27
8.4533354483594e-27
1.4080316880879e-26
1.9040855523577e-26
2.312878288373e-26
2.6206305215398e-26
2.8209870724862e-26
2.914861226375e-26
2.9096228030308e-26
2.8177872633656e-26
2.6554047392115e-26
2.4403575849294e-26
1.2185691547496e-25
0
0
0
0
5.1234773805267e-78
3.6076877358171e-66
-2.764395467608e-64
-5.2020834869932e-62
-3.234541287612e-60
-1.2441803543668e-58
-3.486533723028e-57
-7.6947151129168e-56
-1.400676352141e-54
-2.1685977631707e-53
-2.9192471151145e-52
-3.4737871000046e-51
-3.7015909495521e-50
-3.5688828904274e-49
-3.1400266063244e-48
-2.5391162121037e-47
-1.8984634509489e-46
-1.3193039451093e-45
-8.5598528753136e-45
-5.2057175761921e-44
-2.977844924538e-43
-1.6072303153522e-42
-8.207580859778e-42
-3.9755717446322e-41
-1.8306889348293e-40
-8.030709180371e-40
-3.3622780762918e-39
-1.3458650061805e-38
-5.158757188516e-38
-1.8962631724538e-37
-6.6934308555629e-37
-2.271641520231e-36
-7.421260304244e-36
-2.3363286536112e-35
-7.0949439629792e-35
-2.080342231785e-34
-5.8949151535717e-34
-1.6156222471845e-33
-4.2861012316101e-33
-1.1014536392777e-32
-2.743807473525e-32
-6.6299458761774e-32
-1.5549079972919e-31
-3.5415419036984e-31
-7.8381537574446e-31
-1.6865397302904e-30
-3.5298494291584e-30
-7.1894611977607e-30
-1.4256395515911e-29
-2.7534577469065e-29
-5.1817236206011e-29
-9.5051549668526e-29
-1.700143723509e-28
-2.9661727430679e-28
-5.0492297203802e-28
-8.3887229809733e-28
-1.360577505983e-27
-2.1548271286388e-27
-3.3331763992557e-27
-5.0366920867071e-27
-7.4361328986361e-27
-1.072815237955e-26
-1.5126103691671e-26
-2.084429901512e-26
-2.8075201421439e-26
-3.6960022722136e-26
-4.7554506962752e-26
-5.9793141298878e-26
-7.3456408309194e-26
-8.8146668534596e-26
-1.0327852336264e-25
-1.1808880480542e-25
-1.3166955885296e-25
-1.4302462149248e-25
-1.5114694413005e-25
-1.5511022056238e-25
-1.5416523586015e-25
-1.4782933748705e-25
-1.3595702688457e-25
-1.1878113571741e-25
-9.6917300627332e-26
-7.1329054394591e-26
-4.3256100769018e-26
-1.4113375728349e-26
1.4627522975839e-26
4.156069292212e-26
6.5458026705823e-26
8.5358850854267e-26
1.0062840092209e-25
1.1098094280622e-25
1.1646810026222e-25
1.1743718359823e-25
1.144674419107e-25
1.0829383763495e-25
9.9728104984803e-26
4.9439702668598e-25
0
0
0
0
4.8701575077708e-77
2.5220122097797e-65
-1.3294193040679e-63
-2.9588062650235e-61
-1.881944699413e-59
-7.2893909807782e-58
-2.0467907051569e-56
-4.5164664045131e-55
-8.2105277948289e-54
-1.2686547864047e-52
-1.7036372708049e-51
-2.021729439142e-50
-2.1479845175618e-49
-2.0645793721627e-48
-1.8106700544446e-47
-1.4593414192891e-46
-1.0874637396498e-45
-7.5313273181225e-45
-4.8695347124786e-44
-2.951073543398e-43
-1.6821553098744e-42
-9.0467998851127e-42
-4.6033570053348e-41
-2.2217367755796e-40
-1.0193723641982e-39
-4.4554329426531e-39
-1.8585757599111e-38
-7.4122838783763e-38
-2.830694965207e-37
-1.036663410725e-36
-3.6456333183219e-36
-1.2326591851284e-35
-4.0119355663511e-35
-1.2582803323496e-34
-3.8067453548363e-34
-1.1119757240507e-33
-3.1389769653371e-33
-8.5702790924566e-33
-2.2649406522753e-32
-5.7982214073455e-32
-1.4388368525187e-31
-3.4633209994725e-31
-8.0911116704781e-31
-1.8357475987642e-30
-4.0471410527322e-30
-8.6744637564479e-30
-1.808472801394e-29
-3.6691118984441e-29
-7.2474157170276e-29
-1.3943177770729e-28
-2.613784640736e-28
-4.7760694985538e-28
-8.5097769390185e-28
-1.4789621723456e-27
-2.5079727832661e-27
-4.1508959606011e-27
-6.7070480166555e-27
-1.0582773102876e-26
-1.630964329599e-26
-2.4555840983364e-26
-3.6125054847217e-26
-5.1936460810413e-26
-7.2979512283611e-26
-1.0023873983413e-25
-1.3458684074043e-25
-1.7664904848437e-25
-2.2664776675332e-25
-2.8424296315862e-25
-3.4838968893379e-25
-4.1723793178188e-25
-4.8810045463723e-25
-5.5751031245914e-25
-6.2138104231315e-25
-6.7526967678411e-25
-7.1472730728536e-25
-7.357063144434e-25
-7.3498041788213e-25
-7.105260982612e-25
-6.6181372401777e-25
-5.8996467411377e-25
-4.9774619073992e-25
-3.8939646045124e-25
-2.702952351487e-25
-1.4651639461189e-25
-2.4314690500731e-26
9.0393092813334e-26
1.9249332777529e-25
2.7803738322256e-25
3.4446653839136e-25
3.9068615091498e-25
4.1699528198593e-25
4.2489516560834e-25
4.1681194097595e-25
3.9577476066375e-25
3.6508975138022e-25
1.7941958021259e-24
0
0
0
0
3.9534325619437e-76
1.5627269954969e-64
-5.2520911793491e-63
-1.4982868268904e-60
-9.7891169020866e-59
-3.8226384619448e-57
-1.0760973470327e-55
-2.3748362388477e-54
-4.3123546487981e-53
-6.650787723249e-52
-8.910203626012e-51
-1.0545705559807e-49
-1.11719198492e-48
-1.0705341487721e-47
-9.3589352266238e-47
-7.5183134524763e-46
-5.5836954275911e-45
-3.853854599924e-44
-2.4831694688464e-43
-1.4996013904012e-42
-8.5177196973615e-42
-4.5645746652808e-41
-2.314282070029e-40
-1.1129098535709e-39
-5.0876400308567e-39
-2.215545480862e-38
-9.2080974500844e-38
-3.6587489485592e-37
-1.3920566790637e-36
-5.0789912810613e-36
-1.7794314683398e-35
-5.9939447447661e-35
-1.9434709184889e-34
-6.0722395407686e-34
-1.8300618989018e-33
-5.3252605912014e-33
-1.4974781939417e-32
-4.0727473142506e-32
-1.0721680598812e-31
-2.7340592763684e-31
-6.7581138685715e-31
-1.6203224936379e-30
-3.7705601316573e-30
-8.5210695773038e-30
-1.8711466133242e-29
-3.9946224558536e-29
-8.294963719062e-29
-1.6762130612361e-28
-3.2977231064518e-28
-6.3190714435942e-28
-1.1798325452277e-27
-2.1472362053165e-27
-3.81054077227e-27
-6.5960910712178e-27
-1.1140812082931e-26
-1.8365606343338e-26
-2.9557727504445e-26
-4.6454123749324e-26
-7.1312532152086e-26
-1.0695156505579e-25
-1.5673626000464e-25
-2.2448306958976e-25
-3.1425976166501e-25
-4.3006275734829e-25
-5.7536800998121e-25
-7.5257144916399e-25
-9.6235956622262e-25
-1.2030764960233e-24
-1.4701761048277e-24
-1.7558605355985e-24
-2.0490051741182e-24
-2.3354505657917e-24
-2.5987038620228e-24
-2.8210390831358e-24
-2.9849238376118e-24
-3.0746400841825e-24
-3.0779192831871e-24
-2.9873880998478e-24
-2.8016266498612e-24
-2.5256789661466e-24
-2.1709208250876e-24
-1.7542737024092e-24
-1.2968419935986e-24
-8.2212902255137e-25
-3.5404269905946e-25
8.5074898513898e-26
4.761712448143e-25
8.0478078290045e-25
1.0617826116918e-24
1.243582206361e-24
1.3517561658877e-24
1.3922608822639e-24
1.3743466847895e-24
1.3093350168768e-24
1.2094086523591e-24
5.8836760506262e-24
0
0
0
0
2.797795943262e-75
8.6898953760233e-64
-1.564935634184e-62
-6.8121333594737e-60
-4.5959063391461e-58
-1.8119351958714e-56
-5.1168856478797e-55
-1.1297711685859e-53
-2.0496025970256e-52
-3.1555447196696e-51
-4.2180490606998e-50
-4.9793421157693e-49
-5.2600557022573e-48
-5.0251796787659e-47
-4.3793278738942e-46
-3.5065986259822e-45
-2.5955898932227e-44
-1.7853748534417e-43
-1.146400368463e-42
-6.8989286529896e-42
-3.9047025604185e-41
-2.0850136895984e-40
-1.0533090106621e-39
-5.0468301923102e-39
-2.2987069527018e-38
-9.9734767665467e-38
-4.1297643966969e-37
-1.6348153589092e-36
-6.1967702567665e-36
-2.2524245911651e-35
-7.8615926015446e-35
-2.6380972678232e-34
-8.5211335205801e-34
-2.6521740769482e-33
-7.9624247925134e-33
-2.3080199183072e-32
-6.4650377246343e-32
-1.7514699464692e-31
-4.5927796710148e-31
-1.1665708359071e-30
-2.8721831751321e-30
-6.8590603125729e-30
-1.5897863771117e-29
-3.578410010224e-29
-7.8263707393772e-29
-1.6640971580788e-28
-3.4416107783288e-28
-6.9265199066142e-28
-1.3571670144687e-27
-2.5900054427542e-27
-4.8160572998605e-27
-8.7291328832849e-27
-1.5427471251932e-26
-2.6595568547643e-26
-4.4735531027434e-26
-7.344358466722e-26
-1.1771546949927e-25
-1.8424821428064e-25
-2.8168637242463e-25
-4.2074086962199e-25
-6.1409248612992e-25
-8.759853585018e-25
-1.2214249567818e-24
-1.6649251352971e-24
-2.2188027843404e-24
-2.8910945830637e-24
-3.6832608513484e-24
-4.58793297615e-24
-5.5870350444505e-24
-6.6506470114146e-24
-7.7369582500004e-24
-8.7935761696198e-24
-9.7603056650535e-24
-1.0573316090043e-23
-1.1170391030958e-23
-1.1496749510498e-23
-1.1510775185828e-23
-1.1188926876327e-23
-1.0529150113249e-23
-9.5522668894556e-24
-8.3010698764354e-24
-6.837150174794e-24
-5.2357947823185e-24
-3.5795501023374e-24
-1.951217919621e-24
-4.2710392810017e-25
9.2872889933958e-25
2.0686224744838e-24
2.9635653092422e-24
3.6034487342338e-24
3.9955262332554e-24
4.1614637452861e-24
4.1334898187e-24
3.9501895566062e-24
3.6524428033248e-24
1.757224221001e-23
0
0
0
0
1.7534672063264e-74
4.3801431825773e-63
-2.2091890315136e-62
-2.7980917594555e-59
-1.9626235346931e-57
-7.8252302484391e-56
-2.2184293391188e-54
-4.9022850437565e-53
-8.8874383447509e-52
-1.3661346025365e-50
-1.8222140335715e-49
-2.1456797117873e-48
-2.2603381170095e-47
-2.1529835286726e-46
-1.870420294339e-45
-1.4928333739899e-44
-1.1013262354448e-43
-7.5497487222284e-43
-4.8309956374034e-42
-2.8970599100629e-41
-1.6338821273821e-40
-8.693257427116e-40
-4.3757867414658e-39
-2.0889744835505e-38
-9.4798338293806e-38
-4.0978485620379e-37
-1.6905075357953e-36
-6.6670539454346e-36
-2.5176507492554e-35
-9.1166855348032e-35
-3.1699030689275e-34
-1.0596619461932e-33
-3.4096322027878e-33
-1.0571546019761e-32
-3.1615563479417e-32
-9.128661402573e-32
-2.547085193266e-31
-6.8734198560805e-31
-1.7952977211803e-30
-4.5420881069479e-30
-1.1138661259541e-29
-2.6494438320623e-29
-6.1163293169797e-29
-1.371187672162e-28