/*--------------------------------*- C++ -*----------------------------------*\
  =========                 |
  \\      /  F ield         | OpenFOAM: The Open Source CFD Toolbox
   \\    /   O peration     | Website:  https://openfoam.org
    \\  /    A nd           | Version:  7
     \\/     M anipulation  |
\*---------------------------------------------------------------------------*/
FoamFile
{
    version     2.0;
    format      ascii;
    class       volScalarField;
    location    "1.8";
    object      alpha.water;
}
// * * * * * * * * * * * * * * * * * * * * * * * * * * * * * * * * * * * * * //

dimensions      [0 0 0 0 0 0 0];

internalField   nonuniform List<scalar> 
6000
(
0
0
0
0
0
0
0
0
0
0
0
0
0
0
0
0
0
0
0
0
0
0
0
0
0
0
0
0
0
0
0
0
0
0
0
0
0
0
0
0
0
0
0
0
0
0
0
0
0
0
0
0
0
0
0
0
0
0
0
0
0
0
0
0
0
0
0
0
0
0
0
0
0
0
0
0
0
0
0
0
0
0
0
0
0
0
0
0
0
0
0
0
0
0
0
0
0
0
0
0
0
0
0
0
0
0
0
0
0
0
0
0
0
0
0
0
0
0
0
0
0
0
0
0
0
0
0
0
0
0
0
0
0
0
0
0
0
0
0
0
0
0
0
0
0
0
0
0
0
0
0
0
0
0
0
0
0
0
0
0
0
0
0
0
0
0
0
0
0
0
0
0
0
0
0
0
0
0
0
0
0
0
0
0
0
0
0
0
0
0
0
0
0
0
0
0
0
0
0
0
0
0
0
0
0
0
0
0
0
0
0
0
0
0
0
0
0
0
0
0
0
0
0
0
0
0
0
0
0
0
0
0
0
0
0
0
0
0
0
0
0
0
0
0
0
0
0
0
0
0
0
0
0
0
0
0
0
0
0
0
0
0
0
0
0
0
0
0
0
0
0
0
0
0
0
0
0
0
0
0
0
0
0
0
0
0
0
0
0
0
0
0
0
0
0
0
0
0
0
0
0
0
0
0
0
0
0
0
0
0
0
0
0
0
0
0
0
0
0
0
0
0
0
0
0
0
0
0
0
0
0
0
0
0
0
0
0
0
0
0
0
0
0
0
0
0
0
0
0
0
0
0
0
0
0
0
0
0
0
0
0
0
0
0
0
0
0
0
0
0
0
0
0
0
0
0
0
0
0
0
0
0
0
0
0
0
0
0
0
0
0
0
0
0
0
0
0
0
0
0
0
0
0
0
0
0
0
0
0
1.7903625818576e-55
1.0363616631557e-53
2.9786637709565e-52
5.6693408318494e-51
8.0367968403477e-50
9.0494676968316e-49
8.4308573813161e-48
6.68398300341e-47
4.6029699178205e-46
2.7969971010966e-45
1.5183260988797e-44
7.4369932608273e-44
3.3141329035493e-43
1.3529492905704e-42
5.0896063626177e-42
1.7732651358891e-41
5.747232288349e-41
1.7394547949644e-40
4.9330569593197e-40
1.3148732608537e-39
3.3028951212977e-39
7.8380706317254e-39
1.7611093343529e-38
3.7540301335586e-38
7.6056699438962e-38
1.4670096268151e-37
2.6980618941291e-37
4.7381535676938e-37
7.9555954442265e-37
1.2786979397668e-36
1.9696230247656e-36
2.9105274120556e-36
4.1300590140406e-36
5.6328880014946e-36
7.3903505166131e-36
9.3347601355442e-36
1.1359757038935e-35
1.3328043961791e-35
1.5086227019654e-35
1.6484663391069e-35
1.7398729282878e-35
1.7747248921973e-35
1.7504318254334e-35
1.6702130842739e-35
1.5424494544133e-35
1.3792765167208e-35
1.1947348513338e-35
1.0028595574101e-35
8.1604921888722e-36
6.4394812996555e-36
4.929308795166e-36
3.6614763938478e-36
2.6399064631207e-36
1.8480038385983e-36
1.2563553356856e-36
8.297056447501e-37
5.3240018510159e-37
3.3200878791174e-37
2.0125523150891e-37
1.1860817277164e-37
6.7971996776345e-38
3.7884946498708e-38
2.0539644176061e-38
1.0833586312259e-38
5.5598570836557e-39
2.7766527696887e-39
1.3495722146612e-39
6.3845905401193e-40
2.9401814039907e-40
1.318125797054e-40
5.753270700889e-41
2.4449929630484e-41
1.0117446631037e-41
4.0767736451751e-42
1.5996783171998e-42
6.1127055559401e-43
2.2747283615357e-43
8.2438017834848e-44
2.9095817984523e-44
1.0000874803494e-44
3.3476911101213e-45
1.0913008090697e-45
3.4643633606452e-46
1.0709431890842e-46
3.2236947561294e-47
9.4484908139749e-48
2.6962776119032e-48
7.490812690635e-49
2.0259096189929e-49
5.3333293336351e-50
1.815240960437e-50
0
0
0
0
0
0
0
-1.6535352229924e-45
-8.7753697956309e-44
-2.3067948278083e-42
-4.0029576787908e-41
-5.1556695249219e-40
-5.2534155815775e-39
-4.4075350225412e-38
-3.1282229556464e-37
-1.9146232296364e-36
-1.0246690957664e-35
-4.8429428831925e-35
-2.0347918301221e-34
-7.6249162134888e-34
-2.5463595148148e-33
-7.5257692472488e-33
-1.9314450622035e-32
-4.0958465190823e-32
-6.0559181650551e-32
2.5024297394519e-33
4.5705309224932e-31
2.245699033631e-30
7.8569160253492e-30
2.3165083350596e-29
6.078026343393e-29
1.4555179393322e-28
3.2267899847702e-28
6.6826449696587e-28
1.3009983087176e-27
2.3920810107656e-27
4.1688855692776e-27
6.9069328580534e-27
1.0905358296468e-26
1.6443789795194e-26
2.3723397462608e-26
3.280083404163e-26
4.3529029416893e-26
5.5521181883864e-26
6.8152181495068e-26
8.0604827493972e-26
9.1957998610445e-26
1.0130323443562e-25
1.0786827064808e-25
1.1112347296578e-25
1.1085067799032e-25
1.0716255000648e-25
1.004715849211e-25
9.1418211714093e-26
8.077448539636e-26
6.9342335041763e-26
5.7863377965844e-26
4.6952212910965e-26
3.7058657967282e-26
2.845830896026e-26
2.1266255959528e-26
1.546633571765e-26
1.0947842348275e-26
7.5426919614744e-27
5.0579926815436e-27
3.3011845419588e-27
2.0969041363078e-27
1.2962124536214e-27
7.7970601287828e-28
4.5636183387551e-28
2.5988307485482e-28
1.439807119312e-28
7.7599201034909e-29
4.0682510570252e-29
2.0745737997377e-29
1.0289537645032e-29
4.9634741137116e-30
2.3285058010261e-30
1.0623082569383e-30
4.7128795350376e-31
2.0331339529962e-31
8.5284645921308e-32
3.4784183926808e-32
1.3793642247039e-32
5.3179111449933e-33
1.993174602298e-33
7.2621786084538e-34
2.5720454072047e-34
8.8542257497547e-35
2.9624425730562e-35
9.6325334851962e-36
3.0435653106403e-36
9.3439963591454e-37
2.7870383443516e-37
8.0753510360408e-38
2.2726437248786e-38
6.2114241854555e-39
1.6484437896702e-39
4.2472520090174e-40
1.3985304788885e-40
0
0
0
0
0
0
-7.3352134928558e-44
-4.0824626692949e-42
-1.1266911780724e-40
-2.0557536017471e-39
-2.7895996151407e-38
-3.0026942025876e-37
-2.6703502922127e-36
-2.0179170308358e-35
-1.3225763573875e-34
-7.6366463047886e-34
-3.9325912587363e-33
-1.8240617042918e-32
-7.6825251671053e-32
-2.9580227778577e-31
-1.0471239842737e-30
-3.4244193302549e-30
-1.0388526221585e-29
-2.9337666510232e-29
-7.7357620989545e-29
-1.9093523070111e-28
-4.4206486611029e-28
-9.6168022834308e-28
-1.9681471986617e-27
-3.792216455317e-27
-6.8803687405288e-27
-1.1747947010417e-26
-1.8846733992839e-26
-2.8315976330667e-26
-3.9608584774579e-26
-5.1028437278483e-26
-5.9274519818503e-26
-5.9145747512718e-26
-4.3590452982156e-26
-4.2601294214223e-27
6.7366126190301e-26
1.7837225885377e-25
3.3257084770535e-25
5.2884270699797e-25
7.6009684663684e-25
1.0132182582138e-24
1.270171669873e-24
1.5101581484732e-24
1.7124553051407e-24
1.8593904561203e-24
1.9388538165417e-24
1.9458666580433e-24
1.8829427644437e-24
1.7592540666443e-24
1.5888581027629e-24
1.388406108285e-24
1.1747971649063e-24
9.6318173690093e-25
7.6558027385844e-25
5.9021569028706e-25
4.4150669083435e-25
3.2056286464703e-25
2.2597455269858e-25
1.5469597905444e-25
1.0286299367732e-25
6.6446883656552e-26
4.1705116498601e-26
2.543655106063e-26
1.5077472061388e-26
8.6864235050999e-27
4.8644164746428e-27
2.6480611342637e-27
1.401388783786e-27
7.2101544945742e-28
3.6066508512545e-28
1.7540909186224e-28
8.2946897611798e-29
3.8137885523722e-29
1.7050089907651e-29
7.411605935558e-30
3.1326530579841e-30
1.2874253457499e-30
5.1443871675621e-31
1.998644944307e-31
7.5494106339762e-32
2.7723440069461e-32
9.8972673259321e-33
3.4347178640853e-33
1.1586273984166e-33
3.7987315235085e-34
1.2104203496434e-34
3.7479416181377e-35
1.1276124552385e-35
3.2959751854525e-36
9.3585062543686e-37
2.580856897518e-37
6.9117321814837e-38
1.7972173167922e-38
4.536534651677e-39
1.4539078440677e-39
0
0
0
0
0
2.4351581346386e-45
-1.8835471839957e-42
-1.0718985776434e-40
-2.9552178977919e-39
-5.3580316819723e-38
-7.2119785325382e-37
-7.6956492780655e-36
-6.7841297998877e-35
-5.0828952743152e-34
-3.3042620649716e-33
-1.8932953505632e-32
-9.6808825399681e-32
-4.461632009226e-31
-1.8685896116041e-30
-7.1605878356038e-30
-2.5253075698132e-29
-8.2368863376635e-29
-2.4954665044323e-28
-7.0484301212555e-28
-1.8620488918138e-27
-4.6139930258712e-27
-1.0750386043855e-26
-2.3603011734324e-26
-4.8923056951496e-26
-9.5884098477721e-26
-1.7792163342125e-25
-3.1289287191479e-25
-5.2184754198772e-25
-8.2567038343299e-25
-1.2391323711595e-24
-1.762558885709e-24
-2.3723380073807e-24
-3.012604547617e-24
-3.5912245676215e-24
-3.9831986044169e-24
-4.0434771422531e-24
-3.6289690885415e-24
-2.6267055011275e-24
-9.8254882416956e-25
1.2765342756514e-24
4.0331027762367e-24
7.0867265201263e-24
1.0178347414727e-23
1.3027301135511e-23
1.5373518092197e-23
1.7016114472132e-23
1.7840593623369e-23
1.7829832870639e-23
1.7057989696489e-23
1.5670262170306e-23
1.3854089550079e-23
1.1808345028655e-23
9.7163720529218e-24
7.7268226552072e-24
5.9438758785237e-24
4.4262307442327e-24
3.1927542440599e-24
2.2320014603715e-24
1.5129281411327e-24
9.9473465378614e-25
6.3461341958113e-25
3.9296470153407e-25
2.3624002526283e-25
1.3791414276393e-25
7.8200114566434e-26
4.3075136049548e-26
2.3053384627683e-26
1.19892259927e-26
6.0596552809674e-27
2.9768007117712e-27
1.4214602320766e-27
6.5983368060231e-28
2.9776573035583e-28
1.3063972554332e-28
5.5725033592587e-29
2.3110466000815e-29
9.3186660364533e-30
3.653285473756e-30
1.392487269919e-30
5.1601748593523e-31
1.8590276586761e-31
6.5107814376775e-32
2.216555926208e-32
7.3348279969074e-33
2.3590058951928e-33
7.3731478101418e-34
2.2393055592786e-34
6.6077953750153e-35
1.8941895926054e-35
5.2741096840517e-36
1.4261433731941e-36
3.7444591308038e-37
9.5443056073397e-38
2.3612396742767e-38
7.3699552111577e-39
0
0
0
0
0
6.86476946876e-44
-2.3800413591985e-41
-1.3980958460292e-39
-3.8681797222692e-38
-6.993462241233e-37
-9.3647810948151e-36
-9.931230485837e-35
-8.6970184715347e-34
-6.471932813723e-33
-4.1787110315195e-32
-2.3783337305201e-31
-1.2081640727996e-30
-5.5328816226217e-30
-2.3031592681108e-29
-8.7746596919126e-29
-3.0775093769604e-28
-9.9861232743503e-28
-3.0108864507206e-27
-8.4668327050531e-27
-2.2279381631064e-26
-5.5016709681223e-26
-1.2782027146013e-25
-2.8002126230633e-25
-5.7959186019603e-25
-1.1353714033183e-24
-2.108038870417e-24
-3.7143511485605e-24
-6.2170679419318e-24
-9.8925882587929e-24
-1.4971111126517e-23
-2.1550983496186e-23
-2.9499233387195e-23
-3.8361542234161e-23
-4.7312815120235e-23
-5.5179387285695e-23
-6.0552726711962e-23
-6.1992820376141e-23
-5.8292262439302e-23
-4.8747813611165e-23
-3.3373929231248e-23
-1.2998590313144e-23
1.0793903522471e-23
3.587181793928e-23
5.9876868794765e-23
8.0589176176718e-23
9.6258585453728e-23
1.0583568381139e-22
1.0906336586175e-22
1.0642479435113e-22
9.8975700527118e-23
8.8109941978605e-23
7.5313260985062e-23
6.1952312869724e-23
4.9128978173379e-23
3.7609975140947e-23
2.7824451373341e-23
1.9911059260969e-23
1.3791967011189e-23
9.2531796270719e-24
6.0161323004195e-24
3.792292753563e-24
2.3185407843622e-24
1.375322982956e-24
7.9177581366602e-25
4.4250920202288e-25
2.4014106666081e-25
1.2656809802556e-25
6.4799963138308e-26
3.223200117242e-26
1.5578376002757e-26
7.3169746416736e-27
3.3401006673352e-27
1.4819818220559e-27
6.3916204361782e-28
2.6797010843522e-28
1.0921561284802e-28
4.3272822357339e-29
1.6667884909036e-29
6.241325826978e-30
2.271927068216e-30
8.039277338794e-31
2.7651747429208e-31
9.2444893582008e-32
3.0037508021908e-32
9.4847392963845e-33
2.9101901768544e-33
8.675605622679e-34
2.5124803608412e-34
7.0675016379591e-35
1.9307200655255e-35
5.1213727237154e-36
1.3188162380998e-36
3.2962763465096e-37
7.9948115280902e-38
2.43121812993e-38
0
0
0
0
2.385260370721e-55
9.6432326504742e-43
-1.9671329726952e-40
-1.2034667684868e-38
-3.3495616525877e-37
-6.0469413317326e-36
-8.0634188548104e-35
-8.5048062103802e-34
-7.4029393855462e-33
-5.4740229974286e-32
-3.5115026095281e-31
-1.9855588364562e-30
-1.0020777413053e-29
-4.559460885108e-29
-1.8858298207134e-28
-7.1393714601226e-28
-2.4883862682278e-27
-8.0249680459204e-27
-2.4049690351637e-26
-6.7227583507692e-26
-1.7586798935037e-25
-4.3180330719974e-25
-9.9760040901362e-25
-2.1736115879413e-24
-4.4753898287296e-24
-8.7230564295148e-24
-1.6119973737864e-23
-2.8280996193323e-23
-4.7156943555686e-23
-7.4801327963773e-23
-1.1294756458335e-22
-1.6241464226036e-22
-2.2243059247714e-22
-2.900367251023e-22
-3.597819155204e-22
-4.2390534080297e-22
-4.7312165405909e-22
-4.9797371806854e-22
-4.9054221669e-22
-4.4615538661962e-22
-3.6468179258953e-22
-2.5104723362934e-22
-1.1478731833393e-22
3.1316130118589e-23
1.7323491913007e-22
2.9789452456921e-22
3.9510311054918e-22
4.5882915225622e-22
4.8762933596751e-22
4.8424198947607e-22
4.5454392885473e-22
4.061754610048e-22
3.471536422289e-22
2.8473100493142e-22
2.2464836140818e-22
1.7081387957352e-22
1.2534720223994e-22
8.8873491092979e-23
6.093936982736e-23
4.0441195192495e-23
2.5991335368002e-23
1.6186302248793e-23
9.7719894541158e-24
5.7214849489849e-24
3.2499459887171e-24
1.791500900596e-24
9.5862077847257e-25
4.9804284362111e-25
2.5128421283955e-25
1.2314582611284e-25
5.8626959255714e-26
2.7117900830037e-26
1.2188350431142e-26
5.323593630698e-27
2.2597951815227e-27
9.3231586562488e-28
3.7385672665417e-28
1.4571580504063e-28
5.5204147292923e-29
2.0328144521834e-29
7.2757105051189e-30
2.5309798680208e-30
8.5568700625344e-31
2.8114148947302e-31
8.9760025294078e-32
2.7844971075626e-32
8.3920414556072e-33
2.4569158274745e-33
6.9863924799761e-34
1.9292450157787e-34
5.1727145822022e-35
1.3463706630182e-35
3.4012391251415e-36
8.3375889412672e-37
1.98276734648e-37
5.8760265402494e-38
0
0
0
0
6.9850898041003e-54
8.9985488297949e-42
-1.1911916053374e-39
-7.6783965070623e-38
-2.1549784658049e-36
-3.8888168038571e-35
-5.1671999872421e-34
-5.42280826794e-33
-4.6931221603006e-32
-3.4489239697748e-31
-2.1983123987349e-30
-1.2349308040882e-29
-6.1914666932152e-29
-2.7984663077011e-28
-1.1497729926771e-27
-4.323775305651e-27
-1.4969396772418e-26
-4.795135762863e-26
-1.4273264806348e-25
-3.9627844362119e-25
-1.0295809108278e-24
-2.5105128465814e-24
-5.7599775607586e-24
-1.2463057792152e-23
-2.5483120334506e-23
-4.9326975378041e-23
-9.0533481471212e-23
-1.5777215779296e-22
-2.6137762967576e-22
-4.1205950358599e-22
-6.1866118663671e-22
-8.8510959433707e-22
-1.2070580614816e-21
-1.5690701228218e-21
-1.9433742620115e-21
-2.2911043232285e-21
-2.5664713922065e-21
-2.7235624175495e-21
-2.7246295122634e-21
-2.5480957038121e-21
-2.1943073488626e-21
-1.6874341143862e-21
-1.0727909111489e-21
-4.0999043812775e-22
2.3661153234835e-22
8.0806449967001e-22
1.2593893613707e-21
1.5649050962157e-21
1.7195666788621e-21
1.7365658782725e-21
1.6422491424482e-21
1.4698194857392e-21
1.253267994657e-21
1.0226167057506e-21
8.0101938681133e-22
6.0374012064846e-22
4.3864301746818e-22
3.076362638743e-22
2.0850642367575e-22
1.3669648864637e-22
8.6752593664319e-23
5.3329986734928e-23
3.1772937814487e-23
1.8354285514796e-23
1.0284416231026e-23
5.5914835992549e-24
2.9505442384326e-24
1.5115051051904e-24
7.5186370499015e-25
3.6321781155569e-25
1.7043497385711e-25
7.7690654066026e-26
3.4406708667263e-26
1.4805370734212e-26
6.1905188748278e-27
2.5152951603977e-27
9.9316303813344e-28
3.8109267365606e-28
1.4210887665905e-28
5.1497701878443e-29
1.8135076982029e-29
6.2058050794193e-30
2.0634770533777e-30
6.6664230761936e-31
2.0923773843071e-31
6.3796449125994e-32
1.8893435946088e-32
5.4340678999108e-33
1.5176570333499e-33
4.1151384505355e-34
1.0831239581444e-34
2.7667391689165e-35
6.8574194146918e-36
1.64874776895e-36
3.8444977177801e-37
1.1104318467545e-37
0
0
0
0
1.0150321158077e-52
6.2738321820146e-41
-5.6005161675285e-39
-3.867079613007e-37
-1.0975071701804e-35
-1.9819782141545e-34
-2.6257361891447e-33
-2.7428315304253e-32
-2.3606347760399e-31
-1.7243344974685e-30
-1.0921049091628e-29
-6.0949319762684e-29
-3.0353724623132e-28
-1.3626543600244e-27
-5.5601456608473e-27
-2.0763873068095e-26
-7.1380912974585e-26
-2.2702295494299e-25
-6.7087021414258e-25
-1.8489042765282e-24
-4.767867373003e-24
-1.1537909086406e-23
-2.6268821782512e-23
-5.6397474289935e-23
-1.144122366089e-22
-2.1972129773795e-22
-4.0009700894154e-22
-6.9179541543239e-22
-1.1372525172018e-21
-1.7793941051004e-21
-2.6522247045127e-21
-3.7684966523017e-21
-5.1066816535759e-21
-6.6007166367653e-21
-8.1364997123279e-21
-9.5584048989217e-21
-1.0687051417428e-20
-1.1346586459696e-20
-1.139665264388e-20
-1.0762048425312e-20
-9.4527163000799e-21
-7.5684524879177e-21
-5.2862630156233e-21
-2.8326083007633e-21
-4.4658652607523e-22
1.6577516108217e-21
3.3219012429411e-21
4.4604396031448e-21
5.0634369242328e-21
5.1853537475663e-21
4.9248785160727e-21
4.4014066520057e-21
3.7334476498358e-21
3.02261899491e-21
2.3447611706834e-21
1.7477783788879e-21
1.2545274430057e-21
8.6857980809465e-22
5.8084254347735e-22
3.7557801150283e-22
2.3503041906306e-22
1.424464536855e-22
8.3666023208426e-23
4.7647162757369e-23
2.6320712545875e-23
1.4108506438329e-23
7.3402425508291e-24
3.7075446183296e-24
1.8184059187126e-24
8.6614393595652e-25
4.0071675646938e-25
1.8008429801391e-25
7.8621046813834e-26
3.3346669973958e-26
1.3741562172799e-26
5.5017764720861e-27
2.1402300831384e-27
8.0892938385487e-28
2.9706383559307e-28
1.0599094343735e-28
3.6741130632985e-29
1.2373143584038e-29
4.0478475450669e-30
1.2863263136423e-30
3.9702768737452e-31
1.1901068917631e-31
3.4641173607208e-32
9.7899269328648e-33
2.6858269464623e-33
7.1517513723524e-34
1.8479879108821e-34
4.6328369530444e-35
1.1265670825642e-35
2.6565756540823e-36
6.0733330207977e-37
1.7096735525849e-37
0
0
0
0
9.7590061577888e-52
3.4851890815717e-40
-2.1074814090512e-38
-1.5983787461113e-36
-4.603962861773e-35
-8.3314747147179e-34
-1.101232542839e-32
-1.1454346827757e-31
-9.8058836066661e-31
-7.1203256768958e-30
-4.4812166333342e-29
-2.4845127683636e-28
-1.2289760377206e-27
-5.4791256849534e-27
-2.2199813947776e-26
-8.2310631483695e-26
-2.8090609400977e-25
-8.8680099430537e-25
-2.6008562325994e-24
-7.1130584429304e-24
-1.8200043967665e-23
-4.3694310249256e-23
-9.8681066191554e-23
-2.1013534116887e-22
-4.2278124816626e-22
-8.0516635445558e-22
-1.453871588505e-21
-2.4927284386245e-21
-4.0634376042969e-21
-6.3047239584151e-21
-9.3195733931683e-21
-1.3134074044246e-20
-1.7656026584408e-20
-2.2645172347516e-20
-2.770775097336e-20
-3.2324818764151e-20
-3.5916317429476e-20
-3.7932922437158e-20
-3.7958199290456e-20
-3.5797894785783e-20
-3.1533718000324e-20
-2.5526207241311e-20
-1.83634424419e-20
-1.0765914120454e-20
-3.468726283042e-21
2.8927230431498e-21
7.869656215516e-21
1.1243880998841e-20
1.3024944854299e-20
1.3407950113012e-20
1.2707324646896e-20
1.1284479310692e-20
9.4849017868781e-21
7.5945021015809e-21
5.8182723250258e-21
4.278643545788e-21
3.0275418973413e-21
2.0652587608747e-21
1.3602704125949e-21
8.6613681756183e-22
5.3371037983603e-22
3.1853038769703e-22
1.8425679904968e-22
1.0336364641818e-22
5.6257307465918e-23
2.9717358975265e-23
1.5239815192237e-23
7.5888562269573e-24
3.6699942485826e-24
1.7238262849528e-24
7.8648937647995e-25
3.4856577239949e-25
1.5006597920955e-25
6.2761367270189e-26
2.5498669266574e-26
1.0063663488358e-26
3.8583644437199e-27
1.4369797523102e-27
5.1986006101426e-28
1.8268162171932e-28
6.235275475876e-29
2.0670151837292e-29
6.6546976689696e-30
2.0805258247062e-30
6.3158981348998e-31
1.8615071079918e-31
5.3260485503024e-32
1.4790820936184e-32
3.9861575596075e-33
1.0423465483062e-33
2.6440992197285e-34
6.5051237189524e-35
1.5518203113364e-35
3.5885799263906e-36
8.0422499385234e-37
2.2062231250708e-37
0
0
0
0
6.9834980549131e-51
1.6064398346446e-39
-6.4088755113407e-38
-5.5633253792147e-36
-1.6342012658579e-34
-2.9683868864397e-33
-3.9177129937191e-32
-4.0593877900545e-31
-3.4575993822921e-30
-2.4961376290392e-29
-1.5611461610759e-28
-8.5986497454582e-28
-4.2244834421628e-27
-1.8702713418459e-26
-7.5238693234491e-26
-2.7694273483598e-25
-9.3817966037543e-25
-2.9396374779198e-24
-8.5561978840898e-24
-2.3220593701395e-23
-5.8951982019344e-23
-1.404161042734e-22
-3.1459282418437e-22
-6.6449693672482e-22
-1.3259967895106e-21
-2.5043548967937e-21
-4.4839985602217e-21
-7.6222366473982e-21
-1.2316842629876e-20
-1.8940454117497e-20
-2.7742662486798e-20
-3.8732750543751e-20
-5.1569162485301e-20
-6.5490878095488e-20
-7.9325523814408e-20
-9.1596067937507e-20
-1.00723529473e-19
-1.0529367884051e-19
-1.0433117339517e-19
-9.7514678850886e-20
-8.5276443563737e-20
-6.8757448132954e-20
-4.9625919388223e-20
-2.9800901706906e-20
-1.1143627492191e-20
4.8173368307138e-21
1.7074747725103e-20
2.5217494119802e-20
2.9392224678525e-20
3.0176865655554e-20
2.8406105494171e-20
2.4992078754712e-20
2.0775780424446e-20
1.6430047718385e-20
1.2418535344335e-20
9.0017833618577e-21
6.2740564043914e-21
4.213443830971e-21
2.7311103957368e-21
1.7110933819563e-21
1.0374256041455e-21
6.0927953014927e-22
3.4689740865e-22
1.9159654409819e-22
1.0270466850113e-22
5.3452338061586e-23
2.7016433586342e-23
1.3263131131472e-23
6.3250247102228e-24
2.9301846036909e-24
1.3187017916985e-24
5.7651240128523e-25
2.4483095862415e-25
1.0099536953419e-25
4.0466391505227e-26
1.5748001869698e-26
5.9521574535753e-27
2.1848470740733e-27
7.7883263767593e-28
2.6960052778923e-28
9.0620232353835e-29
2.9575230538893e-29
9.3712124037408e-30
2.882629729554e-30
8.6072028008677e-31
2.4943836107657e-31
7.0150891898702e-32
1.9142777688822e-32
5.0676147449119e-33
1.3012055191449e-33
3.2399636885622e-34
7.8214244010044e-35
1.830094759966e-35
4.1493940152387e-36
9.1136229434134e-37
2.4359384421981e-37
0
0
0
0
3.9676186529303e-50
6.3176282308218e-39
-1.5476573954134e-37
-1.6590432036927e-35
-5.0028011608253e-34
-9.1408711761325e-33
-1.2058474065295e-31
-1.2453639254452e-30
-1.0557163199277e-29
-7.5788302832169e-29
-4.7108477371551e-28
-2.5777790010243e-27
-1.2578654785521e-26
-5.5300191675646e-26
-2.208834195153e-25
-8.0717415148483e-25
-2.714489379932e-24
-8.4430938852925e-24
-2.4394051379916e-23
-6.5715344655147e-23
-1.6560709364699e-22
-3.9154184335249e-22
-8.7071552575153e-22
-1.8254017572473e-21
-3.6149195414209e-21
-6.7744071485339e-21
-1.203262611939e-20
-2.0284569717663e-20
-3.2494279874918e-20
-4.9513617426858e-20
-7.1825873738753e-20
-9.925587289634e-20
-1.3072085823677e-19
-1.6411441715824e-19
-1.9640482536559e-19
-2.239832949579e-19
-2.43224930156e-19
-2.5114928215249e-19
-2.4601932901532e-19
-2.277213847828e-19
-1.9782659379646e-19
-1.5932520713928e-19
-1.1611168784965e-19
-7.2350975837631e-20
-3.1863110600074e-20
2.3650016064677e-21
2.847588445795e-20
4.5824809059991e-20
5.4866195228537e-20
5.6888997429379e-20
5.366823720442e-20
4.7108288328866e-20
3.8945293127795e-20
3.0552418264332e-20
2.286012984325e-20
1.6374885035172e-20
1.1262002788814e-20
7.4547390941635e-21
4.7588948745608e-21
2.9348361672475e-21
1.7510551839699e-21
1.0120070744346e-21
5.6710725951501e-22
3.083762893152e-22
1.6280962473978e-22
8.3489942470372e-23
4.1595736030438e-23
2.0136138764568e-23
9.4716994870132e-24
4.3289944271906e-24
1.9222883145844e-24
8.2923520546657e-25
3.4746941297183e-25
1.4141251247671e-25
5.5891728296268e-26
2.1451416881195e-26
7.9942488542886e-27
2.8925472161856e-27
1.0160951051634e-27
3.4650539105994e-28
1.1470360626674e-28
3.6855548642693e-29
1.1493463893829e-29
3.4784020560385e-30
1.0215084489524e-30
2.9106046208068e-31
8.0452910211843e-32
2.1569882540395e-32
5.6081936213805e-33
1.4137750932145e-33
3.4548053188668e-34
8.1817693398659e-35
1.8773107691008e-35
4.1722032530592e-36
8.9784227619355e-37
2.3375850869366e-37
0
0
0
0
1.8641661966541e-49
2.1632765781716e-38
-2.721699427257e-37
-4.2856718187131e-35
-1.3391568409935e-33
-2.4682982091316e-32
-3.2587839220765e-31
-3.3569087658807e-30
-2.8333907555627e-29
-2.0231663020781e-28
-1.2500210160472e-27
-6.7962033342469e-27
-3.2940625305736e-26
-1.4382013712739e-25
-5.7043409904334e-25
-2.0698724017232e-24
-6.9121058524605e-24
-2.1350340187261e-23
-6.1266118308151e-23
-1.6394497863422e-22
-4.1045572387633e-22
-9.6420888020194e-22
-2.1305964952557e-21
-4.4382120847845e-21
-8.7321917506872e-21
-1.6254488713327e-20
-2.8667631776563e-20
-4.7965532425987e-20
-7.6218480207016e-20
-1.1513012255699e-19
-1.6544497539901e-19
-2.2632467980024e-19
-2.948818100985e-19
-3.6608243859212e-19
-4.3316923820225e-19
-4.8861150262241e-19
-5.254002467455e-19
-5.3835820315686e-19
-5.2510666812516e-19
-4.8644771199944e-19
-4.2612378338811e-19
-3.5010162007413e-19
-2.6561116050383e-19
-1.8014547839134e-19
-1.0055323429324e-19
-3.2298104707635e-20
2.1055763776005e-20
5.8071997922475e-20
7.9344835729085e-20
8.7095653545283e-20
8.4556796514399e-20
7.528958257711e-20
6.2588348194265e-20
4.9078416996176e-20
3.6545302296924e-20
2.5965512216656e-20
1.7668265637669e-20
1.154876148332e-20
7.2699381816513e-21
4.4170282132946e-21
2.595040964313e-21
1.4765562755986e-21
8.1469255797014e-22
4.3630897759526e-22
2.2696024598098e-22
1.1472326725831e-22
5.6363626580553e-23
2.6916564321038e-23
1.2493630646354e-23
5.6356857903245e-24
2.4701068951897e-24
1.0517449043017e-24
4.3495773244978e-25
1.746821833413e-25
6.811570566462e-26
2.578605884205e-26
9.4757297160679e-27
3.3797807637988e-27
1.1699730430181e-27
3.9304360376038e-28
1.2812969931221e-28
4.0529216292434e-29
1.2438205493407e-29
3.7031840584042e-30
1.0694776331985e-30
2.9956466620413e-31
8.1370619828751e-32
2.1430383110314e-32
5.4713637915155e-33
1.3538584253573e-33
3.2460996858738e-34
7.5396354703663e-35
1.6959672576779e-35
3.6934432422539e-36
7.7848403165659e-37
1.9736634492256e-37
0
0
0
0
7.4499177762258e-49
6.5498254220267e-38
-2.0470430313985e-37
-9.6397858111338e-35
-3.1651929735019e-33
-5.9078231980992e-32
-7.8193670316063e-31
-8.0413473770909e-30
-6.761539695915e-29
-4.8038416170803e-28
-2.9509509272416e-27
-1.5943598684389e-26
-7.6770479773685e-26
-3.3293018228021e-25
-1.3115722294461e-24
-4.7273210170058e-24
-1.5683498492128e-23
-4.8140654605092e-23
-1.3732246048939e-22
-3.6541210387981e-22
-9.1003043632337e-22
-2.1270561751472e-21
-4.6773026711001e-21
-9.696136542459e-21
-1.8982589328061e-20
-3.5150188380973e-20
-6.1644054808932e-20
-1.0250623615216e-19
-1.6178863247484e-19
-2.4259104376293e-19
-3.4584233023498e-19
-4.6911333963666e-19
-6.0588086658671e-19
-7.4566095987533e-19
-8.7523073375335e-19
-9.8078172643015e-19
-1.0504403770905e-18
-1.0763773635465e-18
-1.0558750191801e-18
-9.9119205908879e-19
-8.8858705175111e-19
-7.571034132123e-19
-6.0754222978835e-19
-4.5163774592332e-19
-3.0116017407018e-19
-1.667306598292e-19
-5.6463020377706e-20
2.5149818710147e-20
7.7657745484221e-20
1.0419637948931e-19
1.1032334561437e-19
1.0256231857026e-19
8.70938641084e-20
6.8882208203261e-20
5.1317119827179e-20
3.628153181591e-20
2.4474330200366e-20
1.5817849397548e-20
9.8280960468882e-21
5.8872040509373e-21
3.4080093158652e-21
1.9102816102912e-21
1.0384280761534e-21
5.480810512081e-22
2.8109230261077e-22
1.40149749096e-22
6.7945267988078e-23
3.2028942483947e-23
1.4678180404582e-23
6.5379269595814e-24
2.8295748319137e-24
1.1895674969769e-24
4.8565272149777e-25
1.924985736296e-25
7.4063864070401e-26
2.7656054318174e-26
1.0021218285108e-26
3.5232986213976e-27
1.2018125295167e-27
3.9769159521253e-28
1.2765681306619e-28
3.9746034278962e-29
1.2002087359705e-29
3.5147038327171e-30
9.980190967933e-31
2.7475689917847e-31
7.3324801450476e-32
1.896572247718e-32
4.7535498753303e-33
1.1542523418575e-33
2.7146322978916e-34
6.1820375973075e-35
1.3628077602549e-35
2.9072384629947e-36
5.999556215475e-37
1.4806090756591e-37
0
0
0
0
2.5851484553942e-48
1.7747771241083e-37
8.0298697400374e-37
-1.8845467666237e-34
-6.6477468198212e-33
-1.2632756612687e-31
-1.6800003470007e-30
-1.7268610178429e-29
-1.4475467746594e-28
-1.0237485320547e-27
-6.2545228325347e-27
-3.3589592178059e-26
-1.6071659911915e-25
-6.9249054996841e-25
-2.7106274207008e-24
-9.7096694755851e-24
-3.2026075103968e-23
-9.7781218116926e-23
-2.7759389108854e-22
-7.3556730677784e-22
-1.8251026616753e-21
-4.2517718341349e-21
-9.3205356016722e-21
-1.9262483973387e-20
-3.7590273279316e-20
-6.9364105110422e-20
-1.2118088793176e-19
-2.0066647122079e-19
-3.1530537635931e-19
-4.7063091576222e-19
-6.6811835718593e-19
-9.0343986404655e-19
-1.1657675421714e-18
-1.4383531571011e-18
-1.6999526163237e-18
-1.926511097465e-18
-2.0931974459276e-18
-2.1775874991605e-18
-2.1643298793116e-18
-2.0499645322088e-18
-1.8453229400409e-18
-1.5736963511891e-18
-1.2653505415324e-18
-9.5095961568744e-19
-6.5655845789354e-19
-4.0103673957496e-19
-1.9562388111157e-19
-4.4359334746376e-20
5.4985589503622e-20
1.0953980041556e-19
1.2947291238819e-19
1.2589203227223e-19
1.0896874915322e-19
8.6707700827285e-20
6.449755018157e-20
4.5310484025927e-20
3.0273565179904e-20
1.9337816221747e-20
1.1858581984835e-20
7.0052352021302e-21
3.9976839490244e-21
2.2089941193823e-21
1.184040639704e-21
6.1644827564149e-22
3.1200100744677e-22
1.5358151904457e-22
7.3535282065551e-23
3.4242893175891e-23
1.5503806357347e-23
6.822424399367e-24
2.9167585736482e-24
1.2110431416769e-24
4.8816857932986e-25
1.9098849911437e-25
7.250549353456e-26
2.6704286620284e-26
9.5405821898971e-27
3.3060031846994e-27
1.1110299703864e-27
3.6208206278394e-28
1.1442293346766e-28
3.5059732129507e-29
1.0414879807133e-29
2.9991965945722e-30
8.3715929271908e-31
2.2646587038791e-31
5.9363371039257e-32
1.5075619117798e-32
3.7083592536314e-33
8.8335838290236e-34
2.037173110468e-34
4.5470617369546e-35
9.8199697683815e-36
2.0512493067539e-36
4.1428210959157e-37
9.948030483474e-38
0
0
0
0
7.9124176489207e-48
4.3456068767016e-37
4.6965098542163e-36
-3.1594205022143e-34
-1.2442402708004e-32
-2.4262168946617e-31
-3.2520597526478e-30
-3.3465161721559e-29
-2.7992348202525e-28
-1.9719127583723e-27
-1.1987002427116e-26
-6.4012724033498e-26
-3.0445605138174e-25
-1.3039154905815e-24
-5.0740030078335e-24
-1.8075985326855e-23
-5.9330018353562e-23
-1.8039242162512e-22
-5.1040149925024e-22
-1.3489557377813e-21
-3.340530698813e-21
-7.7704097870247e-21
-1.7011867408472e-20
-3.5112224526746e-20
-6.8421370301964e-20
-1.2604969553056e-19
-2.1983126969077e-19
-3.6342891873065e-19
-5.7035411642615e-19
-8.5112977647729e-19
-1.210582833181e-18
-1.6466341848445e-18
-2.1506608362584e-18
-2.7065988304571e-18
-3.2850532899319e-18
-3.8340154328981e-18
-4.2764067380659e-18
-4.5256350624062e-18
-4.5175573323215e-18
-4.2406965688542e-18
-3.7437316692454e-18
-3.1149059008476e-18
-2.4478814584374e-18
-1.8150342461433e-18
-1.2590602150634e-18
-7.9896245455097e-19
-4.3972363204867e-19
-1.7834644985927e-19
-5.7140795070828e-21
9.270614443726e-20
1.3502172486624e-19
1.3991932622284e-19
1.2377213605713e-19
9.890625339817e-20
7.3255297343138e-20
5.1009804731736e-20
3.3696666569292e-20
2.1251618446634e-20
1.2857716233304e-20
7.4917301455919e-21
4.2171548715849e-21
2.2992215604225e-21
1.2165007378911e-21
6.2547255780169e-22
3.1277110552611e-22