/*--------------------------------*- C++ -*----------------------------------*\
  =========                 |
  \\      /  F ield         | OpenFOAM: The Open Source CFD Toolbox
   \\    /   O peration     | Website:  https://openfoam.org
    \\  /    A nd           | Version:  7
     \\/     M anipulation  |
\*---------------------------------------------------------------------------*/
FoamFile
{
    version     2.0;
    format      ascii;
    class       surfaceScalarField;
    location    "1.7";
    object      alphaPhi0.water;
}
// * * * * * * * * * * * * * * * * * * * * * * * * * * * * * * * * * * * * * //

dimensions      [0 3 -1 0 0 0 0];

internalField   nonuniform List<scalar> 
11840
(
0
0
0
0
0
0
0
0
0
0
0
0
0
0
0
0
0
0
0
0
0
0
0
0
0
0
0
0
0
0
0
0
0
0
0
0
0
0
0
0
0
0
0
0
0
0
0
0
0
0
0
0
0
0
0
0
0
0
0
0
0
0
0
0
0
0
0
0
0
0
0
0
0
0
0
0
0
0
0
0
0
0
0
0
0
0
0
0
0
0
0
0
0
0
0
0
0
0
0
0
0
0
0
0
0
0
0
0
0
0
0
0
0
0
0
0
0
0
0
0
0
0
0
0
0
0
0
0
0
0
0
0
0
0
0
0
0
0
0
0
0
0
0
0
0
0
0
0
0
0
0
0
0
0
0
0
0
0
0
0
0
0
0
0
0
0
0
0
0
0
0
0
0
0
0
0
0
0
0
0
0
0
0
0
0
0
0
0
0
0
0
0
0
0
0
0
0
0
0
0
0
0
0
0
0
0
0
0
0
0
0
0
0
0
0
0
0
0
0
0
0
0
0
0
0
0
0
0
0
0
0
0
0
0
0
0
0
2.8745696924381e-201
-2.0814372310085e-204
5.2282623129601e-202
2.3516543492399e-201
3.2258551748466e-201
-1.3099428905328e-202
1.5137847556162e-201
3.7840769626152e-201
2.7536213319564e-202
1.2382899014778e-201
1.7166751926899e-202
0
1.1848742926726e-202
0
2.1713986506258e-203
9.6665472490595e-203
3.9647985481302e-204
1.7745383843967e-203
7.9644752605859e-205
2.9270223250758e-204
5.7050193525122e-205
0
3.4671794128056e-205
0
7.737190064076e-206
2.8405680789107e-205
3.6743086729211e-206
1.8371543364605e-206
1.9867806781151e-206
0
9.8874978536606e-207
0
4.5753986033466e-207
0
1.737219292362e-207
8.7511879395514e-208
6.3681922257928e-208
3.2357327877352e-208
2.543469918452e-208
0
9.7089565087367e-209
0
3.2181178880908e-209
1.6094204817252e-209
1.1465535274212e-209
0
3.6126023200323e-210
1.8063342493754e-210
1.115722238512e-210
5.57861119256e-211
3.3823029202574e-211
1.6911526939265e-211
1.0904857754331e-211
0
3.435092912404e-212
0
9.8606623358849e-213
4.9303312395734e-213
2.9912885633527e-213
0
8.3396454265839e-214
4.1698227170589e-214
2.4486434987734e-214
0
7.0755978909143e-215
0
1.8988573246113e-215
9.4942866231829e-216
5.3426288074568e-216
0
1.4037959084307e-216
7.0189795421581e-217
3.6558030104437e-217
1.827901505222e-217
9.9433872941623e-218
0
2.5421836873508e-218
1.2710918436754e-218
6.5467345695367e-219
1.611433413278e-219
1.6447329927602e-219
8.2236649638009e-220
4.1081018722386e-220
1.9620993324594e-220
1.0183392766445e-220
5.0916963832227e-221
2.5079308157209e-221
1.2539654078605e-221
6.1395131067813e-222
3.0697565533907e-222
1.4943510499873e-222
7.4717552499367e-223
3.6171835161758e-223
1.8085917580879e-223
8.709243567892e-224
4.354621783946e-224
2.086263900402e-224
1.043131950201e-224
4.9729998237833e-225
2.4864984007405e-225
1.1797893959227e-225
5.8989469796135e-226
2.7861164824744e-226
1.3930581923408e-226
6.5504406824928e-227
3.2752203412464e-227
1.5334943954449e-227
7.6674719513095e-228
3.5751545559132e-228
1.7875772779566e-228
8.3016764273279e-229
4.1508382136639e-229
1.9202141737333e-229
9.6010708686665e-230
4.4248477701543e-230
2.2124238850547e-230
1.0159241154127e-230
5.0796205770485e-231
2.3242653447515e-231
1.1621326723758e-231
5.2992789881493e-232
2.6496394940742e-232
1.2041974048401e-232
6.0209870242006e-233
2.7275314813092e-233
1.3637657406546e-233
6.1584678486136e-234
3.0792339243069e-234
1.3862591581666e-234
6.9312957908329e-235
3.1111540559299e-235
1.5555770279649e-235
6.9620797788487e-236
3.4810398894243e-236
1.553569009447e-236
7.767845047235e-237
3.4572323300666e-237
1.7286161650333e-237
7.6729823674677e-238
3.8364911837338e-238
1.6985073783339e-238
8.4925368916693e-239
3.7503098339183e-239
1.8751549169592e-239
8.2602110116344e-240
4.1301055058172e-240
1.8149564736817e-240
9.0747823684085e-241
3.9784893389568e-241
1.9892446694784e-241
8.7010568619039e-242
4.350528430952e-242
1.8986795451704e-242
9.4933977258521e-243
4.1340943746372e-243
2.0670471873186e-243
8.9821549498857e-244
4.4910774749429e-244
1.9474833979584e-244
9.7374169897922e-245
2.6868306079937e-245
0
0
0
0
0
0
0
0
0
0
0
0
0
0
0
0
0
0
0
0
0
0
0
0
0
0
0
0
0
0
0
0
0
0
0
0
0
0
4.2970520718719e-137
1.2403737438957e-137
7.4428368333372e-136
3.7214184166686e-136
1.2809724777632e-135
6.3353803245959e-136
1.4705650229027e-135
7.3528251145134e-136
1.3370675583055e-135
0
9.7431472246966e-137
0
9.745794961544e-137
0
8.4758997857823e-137
0
2.2709746628915e-138
8.2488023194931e-137
2.270764777591e-138
0
1.6054439021259e-138
0
9.2217857559558e-139
0
4.9767061378371e-139
0
1.5147153955885e-140
4.8252345982782e-139
1.3337211167274e-140
0
6.7987883640828e-141
0
2.2486560224438e-141
0
1.1382240318724e-141
0
3.4005487475247e-143
1.1042185443972e-141
1.9772683828614e-143
0
2.0873734479814e-144
0
2.085929982101e-144
0
2.0656085725645e-145
0
2.0644193780998e-145
0
3.6612807375753e-147
2.027806570724e-145
2.1966829729679e-147
0
1.2473123942373e-147
0
8.8589438641505e-149
0
3.2947167857626e-149
0
1.0485664462716e-149
0
2.4089529817922e-150
0
1.2356706843834e-150
0
7.9782307922889e-152
0
2.4300737358358e-152
0
1.5671817899015e-152
0
6.5237811974735e-153
0
7.7394919321395e-154
5.7498320042595e-153
3.418296903397e-154
0
3.4845797808375e-155
3.0698389253132e-154
1.7451602494151e-155
0
3.0559720291014e-156
1.4395630465049e-155
1.0950823307574e-156
0
3.7363467070431e-157
0
6.7883300168027e-158
3.0575137053629e-157
2.2739866663689e-158
0
4.134344508905e-159
1.8605522154784e-158
7.5169723570003e-160
3.382647273205e-159
2.4702845648459e-160
0
4.4914220769555e-161
2.0211423571503e-160
1.450480236673e-161
0
2.6372366430479e-162
1.1867565723682e-161
8.377225263759e-163
0
2.6193417674659e-163
0
8.0666108994e-164
0
2.4481274054049e-164
0
4.4511407368945e-165
2.0030133317155e-164
8.0929831579246e-166
3.641842421102e-165
2.4216878402974e-166
0
7.1484361883308e-167
0
1.2997156706053e-167
5.8487205177255e-167
3.7865125431979e-168
0
6.8845682603598e-169
3.0980557171619e-168
1.9805232129409e-169
0
3.6009512962561e-170
1.6204280833153e-169
1.0234001664372e-170
0
2.8748104515057e-171
0
7.9857411245789e-172
0
2.194650215741e-172
0
3.9902731195291e-173
1.7956229037881e-172
1.0854066981801e-173
0
2.9235530813753e-174
0
5.3155510570461e-175
2.3919979756707e-174
1.4183282323321e-175
0
2.5787786042401e-176
1.1604503719081e-175
7.0468297386838e-177
0
1.8704857089977e-177
0
4.8737441263476e-178
0
1.2536448072399e-178
0
2.2793541949816e-179
1.0257093877417e-178
5.806330674879e-180
0
0
0
0
0
0
0
0
0
0
0
0
0
0
0
0
0
0
0
0
0
0
0
0
0
0
0
0
0
0
0
0
0
0
0
0
-2.0608727975594e-78
-1.0304363987797e-78
-1.1615726361126e-77
-5.8078631805629e-78
-2.6637742586614e-77
-1.3318871293307e-77
-3.5498904162144e-77
-1.7749452081072e-77
-3.2822097741743e-77
-1.6411048870872e-77
-2.3518519055191e-77
-1.1759259527596e-77
4.8865618376154e-61
1.8426105119134e-61
3.8256537681542e-60
2.6634505389252e-60
2.3954511000404e-59
1.6217177814117e-59
1.2613971777811e-58
8.6723940912431e-59
5.8234531644581e-58
4.1386240893284e-58
2.1279481281042e-57
1.4407629741731e-57
7.9265034329862e-56
4.9337160062981e-56
7.3809467224729e-54
4.0191415457881e-54
4.3270382262845e-53
2.9615291200833e-53
1.976156845817e-52
1.3331999374225e-52
1.756166138115e-51
1.0404974522297e-51
6.917844699311e-51
4.786384896999e-51
3.7201146833488e-50
2.3023851253671e-50
1.215843439282e-49
8.9819557529794e-50
3.3026979711948e-49
2.4757929699925e-49
9.0999122335311e-49
6.7388327323842e-49
1.6148544854119e-48
1.3512341695697e-48
2.6726944944644e-48
1.7724101983387e-48
3.7056424946893e-48
3.1948088413765e-48
4.7650423649705e-48
3.1011380063375e-48
1.2063550984719e-47
5.8726269411051e-48
1.5183370310801e-47
1.2651682207827e-47
1.9156328092355e-47
1.1270437645087e-47
2.4142758688833e-47
1.3429376432346e-47
3.0066302943881e-47
1.5190133139382e-47
2.3543822041972e-47
2.537091990053e-47
1.7548190326101e-47
1.9756736132366e-47
1.1091252822509e-47
1.0840390148503e-47
4.2426141075776e-48
6.6004290699464e-48
8.9598914065552e-49
2.0357448601207e-48
1.4530894148372e-49
4.4214223722366e-49
2.7826593043505e-50
1.049623508445e-49
4.4960893162509e-51
2.2143490526686e-50
1.1140525564863e-51
2.8450071251259e-51
1.7656182134044e-52
8.8917446685993e-52
4.3775756216768e-53
1.114760174512e-52
6.8095162951789e-54
3.5042823659028e-53
1.3059296495727e-54
5.1802225910223e-54
3.2534766043638e-55
8.2651589826931e-55
5.0428826427475e-56
2.6087223360383e-55
1.3005098308377e-56
3.1722442284353e-56
2.3855238409885e-57
1.0068549646991e-56
3.7045922021813e-58
1.9209010485097e-57
9.2523885899501e-59
2.3432883370278e-58
1.4246420191338e-59
7.4209271486349e-59
3.6817395336481e-60
8.9522241660507e-60
6.7464763039037e-61
2.8479082387316e-60
1.0572090661371e-61
5.4176557809428e-61
2.3391175214416e-62
6.797395546822e-62
4.3229222855728e-63
1.700579590692e-62
1.0924027685987e-63
2.6744886702476e-63
1.9964628107601e-64
8.4293749035114e-64
3.0586440204587e-65
1.6062255196339e-64
7.946020958402e-66
1.9174250292745e-65
1.4747232653655e-66
6.1136175152878e-66
2.8161801122968e-67
1.1498759894482e-66
5.1682828554454e-68
2.1849371254244e-67
7.7453548702509e-69
4.1700405444707e-68
1.5359463461774e-69
5.7920607863249e-69
3.5083704293183e-70
9.7743047295888e-70
7.4586570873025e-71
2.1535706951436e-70
1.4008706648613e-71
5.0003090656085e-71
3.460532404359e-72
8.5088435000088e-72
6.3219595150178e-73
2.6577968261867e-72
9.729974949764e-74
5.064430395438e-73
2.1863292661682e-74
6.1921048178179e-74
5.1022312904561e-75
1.3205772158387e-74
7.6466187874279e-76
4.0641906926265e-75
1.4802731483089e-76
5.7228436061547e-76
3.3344505417509e-77
9.4090478357628e-77
7.0899382647534e-78
2.0390626338087e-77
1.4044610570894e-78
4.7352112218547e-78
3.3110471193849e-79
8.559859720072e-79
5.063065032585e-80
2.630909240306e-79
1.1116599323568e-80
3.2207966705183e-80
2.7335817401759e-81
6.6593205334791e-81
2.018728517991e-81
0
0
0
0
0
0
0
0
0
0
0
0
0
0
0
0
0
0
8.9297208773019e-49
4.5276634188962e-49
2.8615646114538e-47
1.6175144383124e-47
1.4019198656458e-46
7.942515905216e-47
2.2635839518338e-45
1.8278186844037e-45
2.4075493866488e-45
2.6974995438253e-45
5.4292557541778e-46
1.3452465257518e-45
1.0693508771905e-46
4.3599048769873e-46
3.5057911042406e-47
7.1877176676648e-47
1.3141680978297e-43
5.7397185098745e-44
2.405253321285e-44
1.0736427654632e-43
4.378844734423e-45
1.9673688478427e-44
7.9615340990887e-46
3.5826913245141e-45
1.4475607219099e-46
6.5139733771788e-46
3.3414893261966e-45
0
6.0754357804978e-46
2.7339457481468e-45
1.1046246868529e-46
4.970811093645e-46
2.0084085224231e-47
9.0378383461099e-47
3.6516518591219e-48
1.6432433365339e-47
6.6393670199982e-49
2.9877151582008e-48
1.2071576525071e-49
5.4322094063935e-49
2.1948360102681e-50
9.8767543569042e-50
5.6035321577835e-47
0
1.0188274964679e-47
4.5847149100313e-47
1.852526064763e-48
8.3361080685027e-48
1.853757613643e-46
0
3.3710192800158e-47
1.5168138221064e-46
2.7922296858124e-43
0
2.792457979737e-43
0
1.0195069694521e-44
2.6905147367067e-43
1.0412037509357e-44
0
1.0002644863636e-45
9.4153308107259e-45
2.2942104529198e-46
7.7569704532455e-46
5.710464346096e-47
0
2.2175234118495e-47
4.2152708594805e-47
1.110619103356e-47
2.684754510463e-47
1.2529957935844e-46
0
3.87209210981e-47
5.397803718153e-47
2.7043634388895e-47
2.6811894111223e-47
5.9289021512156e-47
0
3.2462041893224e-46
0
1.9621761779199e-46
0
7.860701614946e-47
1.4976276044864e-46
2.8949706327518e-47
6.1569387619921e-47
6.8811327844333e-48
2.3052298400547e-47
1.531281451806e-48
0
1.5966961130743e-48
0
2.3372882419117e-49
1.3775134479395e-48
1.4766153832371e-49
0
2.059784903651e-50
1.276456133974e-49
1.3156789655903e-50
0
3.1201496017832e-52
1.2867496310376e-50
3.1487638408587e-52
0
1.9087668681382e-52
0
2.6203766945359e-53
1.6484051300792e-52
1.5632513278155e-53
0
2.8468143166587e-54
1.2792099892697e-53
3.8752982855957e-55
2.4605144928628e-54
2.2815920407229e-55
0
3.0513479003817e-56
1.9769239634683e-55
1.8434647072283e-56
0
5.7408486504994e-58
1.7862334752915e-56
5.7430196898364e-58
0
6.6828933166281e-59
0
6.6807458564275e-59
0
3.9810865433088e-59
0
6.8128804362534e-60
3.2998493506542e-59
1.2387765722727e-60
5.574201681678e-60
1.8863292025623e-61
0
1.8856967055761e-61
0
6.2376746267002e-63
1.823326951552e-61
6.2355973177705e-63
0
2.4629386365744e-64
5.9893285277628e-63
2.2423884584122e-64
0
5.1644184541984e-65
0
2.0116462071923e-65
0
1.8674946674054e-65
0
2.9767912097565e-66
0
2.9758310544009e-66
0
5.6604076677524e-68
2.9192272682266e-66
4.0536837652502e-68
0
3.0118433065927e-68
0
1.2130306427693e-69
2.8905404680653e-68
1.1181011404722e-69
0
3.204682739053e-70
0
1.3086333775237e-70
0
1.2393216279024e-70
0
1.9483343227666e-71
0
1.9477054054533e-71
0
2.3473095434874e-72
0
1.8748437027618e-72
0
0
0
0
0
0
0
0
0
0
0
0
0
0
0
0
2.7893414429998e-39
1.3970199423841e-39
2.0690910312257e-37
1.0476315440259e-37
7.4690199607243e-36
3.8299940340842e-36
1.7429265688297e-34
9.0626785231086e-35
2.9691355923717e-33
1.5673182393134e-33
3.9035122722208e-32
2.0964518163361e-32
4.0336633504297e-31
2.2088018957684e-31
3.4019186893885e-30
1.893960516783e-30
2.575971630637e-29
1.4444769859621e-29
1.9308875060287e-28
1.08214641197e-28
1.4484168005514e-27
8.123289163295e-28
1.0313655067605e-26
5.8297870058011e-27
6.6504982730055e-26
3.8136639430463e-26
3.7839656247665e-25
2.2119473043364e-25
1.8784884975902e-24
1.1236165410012e-24
8.1168476628258e-24
4.9823597939587e-24
3.058518280624e-23
1.9309486912987e-23
1.0088101297878e-22
6.5625439180777e-23
2.9267297512492e-22
1.9645770434875e-22
7.5140822684593e-22
5.209125329929e-22
1.7206322893646e-21
1.2320022236505e-21
3.5487168852547e-21
2.6221473681144e-21
6.6661259454551e-21
5.0749951445462e-21
1.1527521694005e-20
9.0279625560377e-21
1.8479606594202e-20
1.4885563825265e-20
2.7396109407784e-20
2.279655170406e-20
3.6661281542981e-20
3.2023661351642e-20
4.2205259255952e-20
3.9689794943213e-20
4.2965356561088e-20
4.2410607484243e-20
4.259526439975e-20
4.224651545874e-20
4.0028027098537e-20
4.0689773288968e-20
3.424172431621e-20
3.6492342058986e-20
2.5611584155696e-20
2.9320022923063e-20
1.6022293794988e-20
2.0276123782285e-20
8.0216868186883e-21
1.1587015744881e-20
3.1279034771061e-21
5.2898443284677e-21
9.7536217351634e-22
1.9225244355335e-21
2.6759558539374e-22
5.85456680008e-22
7.2038075868268e-23
1.6369859845475e-22
2.0139861441226e-23
4.5432303860358e-23
5.8960525469786e-24
1.2977020608645e-23
1.7923915367356e-24
3.843281557428e-24
5.6051202568397e-25
1.1759006632947e-24
1.7869790928315e-25
3.6909018857453e-25
5.749450752632e-26
1.1778396631175e-25
1.8464014838271e-26
3.7815497368319e-26
5.8605438393884e-27
1.2086361151842e-26
1.8261624877047e-27
3.8124752179989e-27
5.5708410417822e-28
1.1805633483684e-27
1.6646848040788e-28
3.5823601594139e-28
4.8847876141733e-29
1.0662143520228e-28
1.4115498135644e-29
3.1195575591083e-29
4.0259785719064e-30
8.9940322162657e-30
1.1350465505852e-30
2.5600698757247e-30
3.1660246825678e-31
7.2035482205064e-31
8.7428055115146e-32
2.0054803670321e-31
2.3915272637916e-32
5.5279325195794e-32
6.483973770881e-33
1.5095483550618e-32
1.7433932518787e-33
4.0862759689525e-33
4.6511957179055e-34
1.0970984272734e-33
1.2318300231198e-34
2.9229382785284e-34
3.2399082555111e-35
7.7311740665654e-35
8.465859730321e-36
2.0309443075031e-35
2.198427751746e-36
5.3007273387219e-36
5.6753199357077e-37
1.3749977780538e-36
1.4568973503146e-37
3.5459267806421e-37
3.7199887431554e-38
9.0936911734208e-38
9.4500291203476e-39
2.3197710029614e-38
2.3889134099721e-39
5.887727386678e-39
6.0108135284483e-40
1.4871111118634e-39
1.5056194168704e-40
3.7387022534892e-40
3.7551222032934e-41
9.3575565609149e-41
9.3267964776567e-42
2.3320880589909e-41
2.3073231700981e-42
5.7881535124458e-42
5.6861135245626e-43
1.4309183228187e-42
1.3960904773613e-43
3.5239704203614e-43
3.4155350112836e-44
8.6467187315192e-44
8.3272956011431e-45
2.114110244396e-44
2.0234813305831e-45
5.1512601463926e-45
4.9010772634306e-46
1.251002740632e-45
1.1833837827004e-46
3.0283677312702e-46
2.8486797031195e-47
7.3081702528499e-47
6.837315338113e-48
1.7583292403385e-47
1.6364004384398e-48
4.2181583251166e-48
3.9056350758403e-49
1.009053823366e-48
9.296645872119e-50
2.4071896778406e-49
2.2071166091087e-50
5.7272370862333e-50
5.226716525976e-51
1.359090187655e-50
1.2344570658427e-51
3.2172215497886e-51
2.9140712156015e-52
7.5922220385854e-52
6.7338939257738e-53
1.798688216998e-52
1.8456341928763e-53
3.9840287155061e-53
1.4426450678474e-53
0
0
0
0
0
0
0
0
0
0
0
0
2.5529929128584e-39
1.2727477347861e-39
2.7801287165241e-37
1.3856410880413e-37
1.3613521089492e-35
6.8200870967861e-36
4.1551626832779e-34
2.0990368809124e-34
8.9983271749041e-33
4.5941087943697e-33
1.4892386782471e-31
7.6989438655793e-32
1.9580133613686e-30
1.0273512570432e-30
2.0808119698517e-29
1.1107758683867e-29
1.8267067810035e-28
9.9392758117572e-29
1.3502513370451e-27
7.483239556577e-28
8.7675432750657e-27
4.9027286787066e-27
5.6241973803977e-26
3.1288009162563e-26
3.7732921231224e-25
2.0849308440693e-25
2.4354859862748e-24
1.3565313282811e-24
1.4270298662963e-23
8.1058338636962e-24
7.5054542045988e-23
4.3554236215046e-23
3.4826163203551e-22
2.0727540296097e-22
1.4015996148825e-21
8.5996949876803e-22
4.8466662806905e-21
3.0791954214438e-21
1.4367700308572e-20
9.4820457178271e-21
3.6656936091702e-20
2.516840163437e-20
8.1380393961576e-20
5.8067855277935e-20
1.602097594888e-19
1.1828314153627e-19
2.8657390733066e-19
2.1745475882411e-19
4.7661413309457e-19
3.6941873998978e-19
7.4721321075773e-19
5.9032398781254e-19
1.1021553763965e-18
8.920949029021e-19
1.490592694772e-18
1.2579292630889e-18
1.7523562950189e-18
1.5879515812777e-18
1.800693549011e-18
1.7284083124567e-18
1.7933915805118e-18
1.7317028495113e-18
1.6981650193186e-18
1.677470453407e-18
1.4760372221754e-18
1.5234674922758e-18
1.1251281101822e-18
1.2445355954586e-18
7.224957542601e-19
8.7994060274143e-19
3.7495846535501e-19
5.1804969994413e-19
1.5341168703215e-19
2.4615272739766e-19
5.0647120054847e-20
9.4074360827716e-20
1.469850748477e-20
3.0271022796267e-20
4.1548849592414e-21
8.9188819625649e-21
1.2141257991508e-21
2.5958186525908e-21
3.7180049141322e-22
7.7632896884994e-22
1.1862212602042e-22
2.4115836256527e-22
3.9036914669131e-23
7.7605796298787e-23
1.3102705547211e-23
2.5660060871008e-23
4.4302555893279e-24
8.621503632914e-24
1.4902914168165e-24
2.9074787564678e-24
4.9353094342403e-25
9.7272554425512e-25
1.5977129404366e-25
3.1989317627106e-25
5.0411260300215e-26
1.028274654154e-25
1.5511463245244e-26
3.2245286211123e-26
4.6678508706773e-27
9.8750099992844e-27
1.3787538188274e-27
2.9616074095181e-27
4.0099480919726e-28
8.7260263755559e-28
1.1509099942411e-28
2.5326710361786e-28
3.2643204608498e-29
7.2552331797466e-29
9.1574078407104e-30
2.0539392928262e-29
2.5425939763641e-30
5.7514191845376e-30
6.9917604743949e-31
1.5941555305309e-30
1.9053576526804e-31
4.3766928775465e-31
5.1487969222647e-32
1.1909544012627e-31
1.3804060316356e-32
3.2138764473355e-32
3.6735406711911e-33
8.6054412879479e-33
9.7078188296891e-34
2.2873196324794e-33
2.5484784134782e-34
6.0376635582805e-34
6.6483172803782e-35
1.5832904693505e-34
1.7240520616235e-35
4.1261857504177e-35
4.4455140861346e-36
1.0689755065842e-35
1.1400964089363e-36
2.753852827694e-36
2.9088083198896e-37
7.0563639204707e-37
7.3848299871101e-38
1.7988416735021e-37
1.8659866744505e-38
4.5632391484395e-38
4.6935727555961e-39
1.1521563237685e-38
1.1754498372498e-39
2.8959478369039e-39
2.9314567239621e-40
7.2475093214208e-40
7.2813226415826e-41
1.8062504825539e-40
1.801559885432e-41
4.4835918430901e-41
4.4407780444695e-42
1.1086553846341e-41
1.0906817883945e-42
2.7311723370196e-42
2.6694333232406e-43
6.7040887494676e-43
6.5113714727296e-44
1.6399150445088e-43
1.5830907473983e-44
3.9980086725041e-44
3.8367551046347e-45
9.7152501927631e-45
9.2702166802992e-46
2.3534049987808e-45
2.2331794838179e-46
5.6834753300563e-46
5.3641838849778e-47
1.368503587851e-46
1.2848916654339e-47
3.2857198526888e-47
3.0693468664205e-48
7.8669100373997e-48
7.3128080527423e-49
1.8784440029645e-48
1.737486783188e-49
4.4737930359421e-49
4.1256759327657e-50
1.0620965458844e-49
9.5882400518426e-51
2.53114640753e-50
2.6446809333484e-51
5.6372914090327e-51
2.0570331560151e-51
0
0
0
0
0
0
0
0
0
0
1.1326592443327e-39
5.6079479459981e-40
1.6979287882202e-37
8.3659357594084e-38
1.0734249910717e-35
5.2882982317374e-36
4.0616441068632e-34
2.0075824710209e-34
1.0698120527583e-32
5.3182586397702e-33
2.1263920683815e-31
1.0653493934822e-31
3.3532076800387e-30
1.6963991047036e-30
4.3195534805075e-29
2.2116038216912e-29
4.616601738746e-28
2.3979314456746e-28
4.1609159600106e-27
2.1989224326862e-27
3.1606416973684e-26
1.7034948043043e-26
2.0569409341503e-25
1.1303171950575e-25
1.1887106242566e-24
6.6049641108754e-25
6.6171079144054e-24
3.6262313447815e-24
4.3524270253121e-23
2.322513464207e-23
3.1533562661406e-22
1.6810327869331e-22
1.8825081194343e-21
1.0553088513222e-21
9.5801322249612e-21
5.5966305499765e-21
4.2738222015127e-20
2.5780124143513e-20
1.6304199577819e-19
1.0206797796557e-19
5.1446084320173e-19
3.3761419327175e-19
1.312814930145e-18
9.1251407346157e-19
2.6947722601444e-18
1.9962813053528e-18
4.5593494543605e-18
3.5776165483861e-18
6.7571974071193e-18
5.4973145613454e-18
9.4498680818701e-18
7.7684779593994e-18
1.3172484930732e-17
1.0735135803306e-17
1.862306572388e-17
1.4994364457878e-17
2.5883805865125e-17
2.0960093736666e-17
3.2617821071575e-17
2.7764843098713e-17
3.4978597633056e-17
3.2158172162026e-17
3.5072767792971e-17
3.2863894694555e-17
3.3770662373469e-17
3.2201124812821e-17
3.0014025093759e-17
2.9806951511062e-17
2.3439631692368e-17
2.4910883251094e-17
1.545276503323e-17
1.8055595551999e-17
8.2658384485477e-18
1.0924173254984e-17
3.5143504646378e-18
5.3643220617354e-18
1.2177675890536e-18
2.1371742554401e-18
3.7321220709216e-19
7.2289533711968e-19
1.1138075676475e-19
2.2474091878689e-19
3.4291375936267e-20
6.90134001951e-20
1.1060357161509e-20
2.1768195897077e-20
3.7203516478176e-21
7.1360557104168e-21
1.2912677619049e-21
2.4249777995236e-21
4.5658647434897e-22
8.4629561379837e-22
1.6226012734814e-22
2.995869792625e-22
5.7216614899802e-23
1.0618010181233e-22
1.9808827411673e-23
3.723356901998e-23
6.6833437138512e-24
1.2797140853941e-23
2.1891144074786e-24
4.2842592187707e-24
6.9597165392377e-25
1.3932914524262e-24
2.153474133167e-25
4.4040797193807e-25
6.5127308565831e-26
1.3570376482223e-25
1.9334065327737e-26
4.0923504541375e-26
5.6526687061284e-27
1.2123245907301e-26
1.6310436302002e-27
3.5379828596771e-27
4.6504183625691e-28
1.0190372871783e-27
1.3112461489923e-28
2.9002822164564e-28
3.6588407942153e-29
8.163612800197e-29
1.0110362161131e-29
2.2742638992524e-29
2.768482434971e-30
6.2750813665461e-30
7.5167955576533e-31
1.7159341588887e-30
2.0247570409398e-31
4.6530733775627e-31
5.4133626924961e-32
1.2518820974007e-31
1.437134539323e-32
3.3432711878405e-32
3.7899033835857e-33
8.8663266159775e-33
9.9313653133055e-34
2.3358335971668e-33
2.5868831631286e-34
6.1152431953246e-34
6.6997288571845e-35
1.5914542068476e-34
1.7257008765863e-35
4.1181942421334e-35
4.4218903075356e-36
1.0599014403935e-35
1.1274123721144e-36
2.7137820426028e-36
2.8607577131564e-37
6.9140457094719e-37
7.2258250129975e-38
1.7531830429153e-37
1.8171079142079e-38
4.4253092105066e-38
4.5502421802117e-39
1.1121394364536e-38
1.134795639648e-39
2.7832157923229e-39
2.8189974216049e-40
6.9370467696881e-40
6.9763160974572e-41
1.7222900732614e-40
1.7201607998377e-41
4.2599240467695e-41
4.2264626592185e-42
1.0498268886388e-41
1.0349056396393e-42
2.5781426771837e-42
2.5257364795723e-43
6.3098607156501e-43
6.144466002699e-44
1.539230137579e-43
1.4901567557301e-44
3.7428562844515e-44
3.6030652418433e-45
9.0732118458789e-45
8.6864707825623e-46
2.1928935054611e-45
2.0882451158977e-46
5.2845889601881e-46
5.0064571805762e-47
1.2699173295973e-46
1.1968301382471e-47
3.0435142939364e-47
2.8590956839637e-48
7.2700733599606e-48
6.6837150367816e-49
1.7431466046239e-48
1.8556392817985e-49
3.9041821658919e-49
1.4360151002152e-49
0
0
0
0
0
0
0
0
0
0
4.3337376736825e-38
2.0921268232614e-38
4.5686825791942e-36
2.206652396425e-36
2.3068056572897e-34
1.1167455127995e-34
7.4785456408118e-33
3.6346548755664e-33
1.760976627564e-31
8.6035791749555e-32
3.2251037595703e-30
1.5858612945626e-30
4.7977688861802e-29
2.3773957129015e-29
5.9565761379968e-28
2.9793547480855e-28
6.268658249266e-27
3.1714224166967e-27
5.6680985216154e-26
2.9086806732117e-26
4.3880343379316e-25
2.2905834443387e-25
2.9459934742916e-24
1.5695428954534e-24
1.6984918653654e-23
9.2533503632641e-24
8.6389922696443e-23
4.7332336557135e-23
4.6654150805184e-22
2.4940545454114e-22
2.9158161804468e-21
1.4622845998921e-21
3.3620410470364e-20
1.6419549872905e-20
3.9284393219235e-19
1.996741370385e-19
2.8184731769015e-18
1.540829074072e-18
1.3415921404067e-17
8.071413228232e-18
4.8204735942364e-17
3.1009288677743e-17
1.2762064764128e-16
8.9596492984084e-17
2.2970673787471e-16
1.8519832309354e-16
2.7068705919514e-16
2.5686197774365e-16
2.7210024580924e-16
2.6599068349256e-16
2.5065646599449e-16
2.5047057543053e-16
2.414454669052e-16
2.3092285425191e-16
2.5232543854275e-16
2.3143257290376e-16
2.9396275486288e-16
2.5271411083552e-16
3.6378703039216e-16
3.0242161308755e-16
4.172003221035e-16
3.6113329943212e-16
4.2419280619035e-16
3.8486633364556e-16
4.1685262473055e-16
3.8157272434604e-16
3.7958684251537e-16
3.6056851296071e-16
3.0377429996362e-16
3.0865369504264e-16
2.0487778884947e-16
2.2898897790062e-16
1.121894147164e-16
1.4171746003283e-16
4.9206299605934e-17
7.1458397072474e-17
1.7836766335952e-17
2.9534144752244e-17
5.7897137085241e-18
1.0498432750236e-17
1.837599884703e-18
3.4601850970347e-18
6.0094025647313e-19
1.1294764464514e-18
2.0555960299928e-19
3.7864356433167e-19
7.3256234443127e-20
1.3183925523651e-19
2.6896162722824e-20
4.7526350311718e-20
1.0034551720992e-20
1.755509946414e-20
3.7519008181227e-21
6.5581694761455e-21
1.3887172868885e-21
2.4460907869626e-21
5.0375275261086e-22
9.0068700709742e-22
1.7771463424161e-22
3.2440892636531e-22
6.0670436340275e-23
1.135182804042e-22
2.0011598582527e-23
3.8441069949428e-23
6.3895437276599e-24
1.2590797950294e-23
1.9838393396021e-24
3.9991185776021e-24
6.021865799064e-25
1.2373321187433e-24
1.79536818801e-25
3.7472890110884e-25
5.273953868923e-26
1.1152646164729e-25
1.5292030148046e-26
3.2707059282e-26
4.3811881703582e-27
9.4674577491976e-27
1.2412136621167e-27
2.7078420799722e-27
3.4796878354634e-28
7.6590698694004e-28
9.6601396253778e-29
2.1439867052201e-28
2.6574777705813e-29
5.9439161409517e-29
7.2487359730987e-30
1.6331018832553e-29
1.9615156809891e-30
4.4493685208443e-30
5.2681818740243e-31
1.2026864132793e-30
1.4049154478856e-31
3.2268176257586e-31
3.7215505010105e-32
8.5969224408659e-32
9.7956064861692e-33
2.2752017658605e-32
2.5627665478217e-33
5.983461346725e-33
6.6662606982291e-34
1.564139323549e-33
1.7245118259671e-34
4.0654840761675e-34
4.4377908586471e-35
1.0509367526783e-34
1.1362723106769e-35
2.7025466129502e-35
2.8953695707422e-36
6.9151099914437e-36
7.3437222194974e-37
1.7609388327209e-36
1.8543770071758e-37
4.463673681617e-37
4.6625454557204e-38
1.126475202926e-37
1.1675092905312e-38
2.8307712750819e-38
2.9118868925119e-39
7.0845150995994e-39
7.2347960545875e-40
1.7660447781168e-39
1.7909063482936e-40
4.3857076569654e-40
4.4174141146925e-41
1.0851272074314e-40
1.0858325284459e-41
2.6753339649375e-41
2.6601438803361e-42
6.5732797626273e-42
6.4959164778358e-43
1.6096839990677e-42
1.5812911966658e-43
3.9291502081293e-43
3.837605899332e-44
9.5609015254477e-44
9.2858985018499e-45
2.3194346012946e-44
2.2405187939593e-45
5.6102730887358e-45
5.3898675083396e-46
1.3532300503311e-45
1.2955624466923e-46
3.2529222094062e-46
3.0468371037073e-47
7.8482760054364e-47
8.5160770950748e-48
1.7679010679282e-47
6.55622922589e-48
0
0
0
0
0
0
0
0
4.6238829484595e-51
1.3214782590102e-51
7.9172808559066e-37
3.7170462554991e-37
7.2285651354901e-35
3.4072833172022e-35
3.2492337949562e-33
1.5387709809047e-33
9.5768048259486e-32
4.5599349006604e-32
2.0822753349626e-30
9.9745374467206e-31
3.5644297323423e-29
1.718606950344e-29
5.010976457526e-28
2.433079732606e-28
5.9481993787838e-27
2.9106353886917e-27
6.0734711874796e-26
2.9986753718637e-26
5.4048160800003e-25
2.6981225478121e-25
4.1916409821108e-24
2.1214290945145e-24
2.8597345531541e-23
1.4725975622573e-23
1.6903251624996e-22
8.8984109319051e-23
8.6616189596664e-22
4.6581494119097e-22
4.0835766533048e-21
2.2056566611225e-21
1.9881361665635e-20
1.0056981070878e-20
2.1029225351532e-19
9.475128674012e-20
2.7181511830379e-18
1.1890236954251e-18
2.6749097671806e-17
1.2096799714122e-17
4.2577996571558e-16
1.9568284968011e-16
2.4196761361455e-15
1.3100767429256e-15
7.3168943478378e-15
4.8239810926826e-15
1.0883244343519e-14
9.5950243291265e-15
1.1057017909283e-14
1.077441149191e-14
9.598767434799e-15
1.0013441267188e-14
6.8607003768989e-15
7.8861235277111e-15
4.1732065086071e-15
5.1518824197547e-15
2.939586082534e-15
3.1468250181405e-15
2.8460744870611e-15
2.6162688612113e-15
3.0314774087709e-15
2.6231123170114e-15
3.3892467414468e-15
2.8379363041199e-15
3.5126013743972e-15
3.0481457925984e-15
3.5028298639253e-15
3.0558240327455e-15
3.2495927837245e-15
2.9338717980082e-15
2.6688636314578e-15
2.5728837147761e-15
1.8424372052594e-15
1.9561232525383e-15
1.0337278670015e-15
1.2399508466005e-15
4.6816389574144e-16
6.4272575065827e-16
1.7785631942188e-16
2.7602382573406e-16
6.1356446444767e-17
1.0341197874223e-16
2.082482750465e-17
3.6307310693273e-17
7.2838456012817e-18
1.2681512173327e-17
2.6602962771949e-18
4.5517708615916e-18
1.009808111421e-18
1.6945181849001e-18
3.9354879826011e-19
6.5120851710693e-19
1.5524638739318e-19
2.5541796017044e-19
6.1174376242393e-20
1.0092027512006e-19
2.3817214391141e-20
3.9695913299645e-20
9.0795883617576e-21
1.5388664040268e-20
3.3629041420632e-21
5.8291184069196e-21
1.2025558477549e-21
2.1416310431011e-21
4.1371767367611e-22
7.5906921314686e-22
1.3698681577484e-22
2.5897413953082e-22
4.3836465879251e-23