/*--------------------------------*- C++ -*----------------------------------*\
  =========                 |
  \\      /  F ield         | OpenFOAM: The Open Source CFD Toolbox
   \\    /   O peration     | Website:  https://openfoam.org
    \\  /    A nd           | Version:  7
     \\/     M anipulation  |
\*---------------------------------------------------------------------------*/
FoamFile
{
    version     2.0;
    format      ascii;
    class       volScalarField;
    location    "1.7";
    object      alpha.water;
}
// * * * * * * * * * * * * * * * * * * * * * * * * * * * * * * * * * * * * * //

dimensions      [0 0 0 0 0 0 0];

internalField   nonuniform List<scalar> 
6000
(
0
0
0
0
0
0
0
0
0
0
0
0
0
0
0
0
0
0
0
0
0
0
0
0
0
0
0
0
0
0
0
0
0
0
0
0
0
0
0
0
0
0
0
0
0
0
0
0
0
0
0
0
0
0
0
0
0
0
0
0
0
0
0
0
0
0
0
0
0
0
0
0
0
0
0
0
0
0
0
0
0
0
0
0
0
0
0
0
0
0
0
0
0
0
0
0
0
0
0
0
0
0
0
0
0
0
0
0
0
0
0
0
0
0
0
0
0
0
0
6.4688225266013e-199
5.3184579607439e-203
7.3236712879315e-199
1.5139772188289e-199
4.1984895129389e-203
3.8625191835522e-200
2.6659671585132e-200
5.2373339378336e-203
4.8104811309513e-204
3.2849577109391e-203
1.2836293543153e-202
7.8011536788126e-203
3.2058372496171e-204
7.3486173458422e-204
4.470256525759e-204
2.2246870170736e-204
1.029464685753e-204
3.4711840108369e-205
1.2710566114166e-205
5.722807316517e-206
2.1845152144658e-206
6.4360550073417e-207
2.5797454366976e-207
7.2251880953849e-208
2.231444477024e-208
6.7646052236159e-209
2.4535929947244e-209
7.7289590529091e-210
1.9721324635954e-210
6.7303992675437e-211
1.6679290851284e-211
5.5094478722402e-212
1.5920095254557e-212
3.7977146492163e-213
1.2020914816778e-213
2.8075918168611e-214
7.3116060208873e-215
2.2372621411865e-215
5.0843673747015e-216
1.3924436074819e-216
3.2894659855204e-217
8.2621795463072e-218
2.0366785532891e-218
5.0158616314418e-219
1.2279026213563e-219
2.9887020999747e-220
7.2343670323515e-221
1.7418487135784e-221
4.1725278008041e-222
9.9460004031422e-223
2.3595787918454e-223
5.5722329893971e-224
1.3100881364986e-224
3.0669887921855e-225
7.1503091118264e-226
1.6603352854656e-226
3.8404283474666e-227
8.8496955403198e-228
2.0318482308262e-228
4.648530689503e-229
1.0598557976299e-229
2.4083948096803e-230
5.4550629626184e-231
1.2316935697227e-231
2.7725183163332e-232
6.2223081118598e-233
1.3924159557697e-233
3.107138018894e-234
6.9144646601331e-235
1.5345964734935e-235
3.3970147566677e-236
7.5006196678367e-237
1.6520422023269e-237
3.6299129473634e-238
7.9569786779135e-239
1.7402113723808e-239
3.7973590903409e-240
8.2681887492743e-241
1.7964309899771e-241
3.8949667959169e-242
1.0747322431975e-242
0
0
0
0
0
0
0
0
0
0
0
0
0
0
0
0
0
0
0
4.0533426835423e-135
1.4976488895878e-133
2.5272039234163e-133
2.9480782522274e-133
2.9224822061248e-133
1.5575000497935e-133
1.3153416799982e-137
1.7311776332187e-134
0
2.8615776972811e-139
3.4755604940121e-136
2.7308536978313e-136
9.9894133179359e-137
0
4.6004352973929e-139
1.449139122333e-138
9.2293434176393e-139
1.7557926526709e-139
-2.2761049594728e-157
2.3672249845255e-141
2.7294788326258e-141
2.2738546610524e-145
2.7297787120721e-142
1.7273082148927e-146
0
2.0603313033537e-145
1.3184683625252e-145
1.5471065665006e-145
7.0567183042702e-147
2.8237289148129e-147
9.9091198894419e-148
1.379017819861e-148
1.3721509113982e-148
6.3158693848605e-150
9.8033618338912e-151
1.0512107904279e-150
0
5.0772440259949e-152
0
2.7441544380009e-153
0
2.4001700829161e-154
8.4163107420993e-155
-8.2810217640096e-172
5.1136889203509e-156
5.1750216630205e-173
-1.2938156637518e-173
5.558128277245e-158
0
3.2635792671064e-159
0
1.8848756507966e-160
5.8935189626222e-161
1.8149874546915e-161
5.5082866587963e-162
0
0
5.4487976406513e-164
1.6083981423715e-164
0
8.5196532221944e-166
0
4.456177229117e-167
0
2.3026503744837e-168
6.4683235158878e-169
1.7967917530303e-169
4.9379629854172e-170
0
2.4421650709053e-171
6.5779944330944e-172
0
3.1912385227472e-173
0
1.5855366912039e-174
4.2085928452449e-175
1.0965924284282e-175
2.8207008162897e-176
0
1.3064244018478e-177
4.4052138161325e-178
0
0
0
0
0
0
0
0
0
0
0
0
0
0
0
0
0
-4.1217455951189e-76
-2.3231452722252e-75
-5.3275485173229e-75
-7.0997808324287e-75
-6.5644195483487e-75
-4.7037038110382e-75
6.1553340071695e-59
4.045544218264e-58
2.5150004305631e-57
1.3591551322733e-56
6.5972435612242e-56
2.2619844386028e-55
7.1719838042796e-54
7.5524258977485e-52
4.6282986495384e-51
2.0800286111334e-50
1.9541966997224e-49
7.5857553113326e-49
4.3256638353664e-48
1.4687553785786e-47
4.0778089305585e-47
1.2372559570573e-46
2.3277443802267e-46
4.3436822876514e-46
6.1993365370165e-46
8.0326034664451e-46
1.9270368443009e-45
2.5780391287978e-45
3.4209578750873e-45
4.1547631100914e-45
6.0478873216203e-45
5.0532062430375e-45
3.864017615272e-45
2.8512795070786e-45
1.3479420873206e-45
3.6881761904579e-46
5.9838851742534e-47
2.9285032836322e-48
3.9828508538252e-49
1.6850759278552e-49
1.5992317101719e-50
6.4030846495821e-51
6.184670747129e-52
1.0612494783465e-52
4.5788496003851e-53
4.4375248334229e-54
1.6612098147202e-54
1.7059181924195e-55
2.9617326619683e-56
1.2600849588204e-56
1.2393823880831e-57
4.5787756294296e-58
4.7662219913863e-59
8.2424547489442e-60
4.1296954135338e-60
5.4723219291862e-61
1.4732158270088e-61
1.4187121074243e-62
2.4464380810351e-63
9.4423027450102e-64
1.0138586710602e-64
1.2206452287745e-65
3.2620958288476e-66
6.3698758213881e-67
1.1885928532062e-67
5.6737017801762e-68
1.6208281900965e-68
2.3984718024526e-69
4.9030516426348e-70
4.4645401106583e-71
7.5906821202234e-72
3.5145492027649e-72
8.9103526626483e-73
7.0695922259154e-74
1.1608624375458e-74
5.2608171356803e-75
1.4608633286965e-75
2.5270540158163e-76
5.5816023603976e-77
4.4696466570742e-78
1.8333054999276e-78
4.2608319307385e-79
1.7370742558733e-79
0
0
0
0
0
0
0
0
0
8.5681146968771e-47
3.024252721495e-45
1.4706927392774e-44
3.4829120989229e-43
4.6135575168055e-43
5.9823135900952e-44
1.3177747429038e-80
2.4892061111445e-61
2.6986595512037e-41
-1.8486760854938e-51
-6.2836396355812e-87
2.0590230357872e-82
1.9913648889156e-60
7.5183523920839e-43
7.4213497500966e-59
3.0268745855082e-58
1.8863203910233e-57
1.029572985661e-56
5.0058424957569e-56
1.8546244933944e-55
5.0777978450588e-54
1.2607947435665e-44
5.1524118187277e-51
1.6294012561059e-50
4.1709568146786e-44
8.4145895994437e-49
4.082128095046e-40
3.2554077580567e-44
4.4593454951086e-47
3.1386561842459e-43
2.5061877105452e-46
3.691594776168e-46
1.8715127305803e-44
8.1091285839995e-46
1.4489169180876e-45
2.6199089535546e-44
6.5374754298783e-45
4.8734873511496e-45
5.4087268777768e-45
1.7896417761729e-43
6.6906483096315e-44
2.8734081195781e-45
3.5753168555181e-45
4.3531505019324e-46
2.2610291848487e-45
1.428810348379e-47
2.700742367613e-48
2.9892960404871e-47
1.0640921114798e-49
2.4123482819147e-48
4.1502792220057e-51
7.8098415465353e-52
3.7950714129354e-50
3.0623201946969e-53
3.0866234220086e-51
1.1792336215545e-54
2.2206461722439e-55
4.4791375450199e-53
8.6669539307755e-57
3.299259784342e-54
3.3258170497098e-58
9.1932887882851e-59
1.3498873452211e-55
1.0301699179296e-59
7.0796247261773e-57
9.8486105466698e-62
1.850973474717e-62
2.7569801808507e-58
1.8246201508431e-62
1.3090872656099e-64
6.0393923950874e-64
4.8071048640056e-66
5.7928201809721e-63
4.5704629359497e-62
8.8580440145264e-63
3.5906932562965e-64
4.7017292176002e-63
2.867434420622e-67
5.8235015764886e-71
4.8235819557644e-66
3.1538175315731e-66
4.7711517220275e-73
2.850095086738e-68
2.4330644278779e-67
5.8420509415913e-68
2.2768063073031e-69
3.1143870861425e-68
1.8750199938337e-72
5.0531644199201e-69
1.4214836485647e-70
5.4540380979405e-70
0
0
0
0
0
0
0
2.6454358596842e-37
1.9865944685084e-35
7.2654584639095e-34
1.7189051727891e-32
2.9714816794839e-31
3.9724454590587e-30
4.1824663374723e-29
3.5842321386879e-28
2.7341962083844e-27
2.0514893040168e-26
1.542965990999e-25
1.108315273522e-24
7.2511239949367e-24
4.2052544934856e-23
2.1356774154398e-22
9.468979649665e-22
3.6706922947956e-21
1.2484534414287e-20
3.7420989605678e-20
9.939355501128e-20
2.3556029272127e-19
5.0247358551386e-19
9.7459505085968e-19
1.7369536904112e-18
2.8682519177329e-18
4.3983602487244e-18
6.190145027164e-18
7.6971881135006e-18
8.2121433913738e-18
8.1528556380013e-18
7.8291824077376e-18
7.038039337684e-18
5.6450929840119e-18
3.8865087056889e-18
2.1931061715949e-18
9.7203953886916e-19
3.3287244896483e-19
9.2547268030892e-20
2.3619093313559e-20
6.2384086349694e-21
1.7771878913539e-21
5.3775245703453e-22
1.6889919353389e-22
5.4217651534186e-23
1.7581879705125e-23
5.6949828962062e-24
1.8230794568251e-24
5.7215758217191e-25
1.7533888537667e-25
5.2470604282078e-26
1.5377102215659e-26
4.4301683143185e-27
1.258878118036e-27
3.5357736717433e-28
9.8265721218365e-29
2.7038931697631e-29
7.36970334586e-30
1.9907210907826e-30
5.332349247325e-31
1.4171490194799e-31
3.738666011411e-32
9.7951054231733e-33
2.5495139254104e-33
6.5949255929889e-34
1.6959096665413e-34
4.3367177319936e-35
1.1030637082482e-35
2.7914334330728e-36
7.0297394290169e-37
1.7620863626644e-37
4.3971916982509e-38
1.0926026401109e-38
2.7037145208199e-39
6.6640688025724e-40
1.6362969108258e-40
4.0030288799201e-41
9.7583334972332e-42
2.3706963497367e-42
5.7403651340714e-43
1.385522494384e-43
3.3338242184383e-44
7.9977726349455e-45
1.9130777773059e-45
4.5632193278984e-46
1.0854785205671e-46
2.5752327201161e-47
6.0938311922652e-48
1.4383572228874e-48
3.3872657241038e-49
7.9455226551137e-50
1.8887351862948e-50
3.8338503834265e-51
1.6810796113584e-51
0
0
0
0
0
0
2.4162051140654e-37
2.6542800452108e-35
1.3133208307046e-33
4.0549462634834e-32
8.8907983204405e-31
1.4912340177143e-29
1.9902189965162e-28
2.1506426564399e-27
1.9224863340905e-26
1.4468797482267e-25
9.4911194077894e-25
6.0811000720888e-24
4.0762442725378e-23
2.653292105451e-22
1.5771295365723e-21
8.4476805713931e-21
4.0123803907167e-20
1.6621990534986e-19
5.9475207426901e-19
1.8324901786512e-18
4.8737131927927e-18
1.1283018481064e-17
2.3091303657499e-17
4.2689361619814e-17
7.2941480873266e-17
1.1713825067043e-16
1.7759779966604e-16
2.5087630007593e-16
3.1727597110498e-16
3.4479672528978e-16
3.4358299366371e-16
3.3217968983542e-16
3.0197738269152e-16
2.463175242523e-16
1.7340449745532e-16
1.0089879061914e-16
4.6684748223888e-17
1.6933854357923e-17
5.0349430251326e-18
1.3691387544734e-18
3.8063241534996e-19
1.1328614895036e-19
3.5827535116831e-20
1.1799247690148e-20
3.9789672338167e-21
1.3547157541144e-21
4.5963087683805e-22
1.5362358363561e-22
5.0154683405193e-23
1.5923737661652e-23
4.9150145102092e-24
1.4791052815873e-24
4.3589616259991e-25
1.2633742322681e-25
3.6124122810388e-26
1.0208499998805e-26
2.8538169673603e-27
7.8965216743369e-28
2.1638350649744e-28
5.8755623195902e-29
1.5818933926336e-29
4.2252684696935e-30
1.1202043388653e-30
2.9491318983405e-31
7.7127958314278e-32
2.0044771231818e-32
5.1784557060154e-33
1.330259379965e-33
3.3988030440342e-34
8.6392619658432e-35
2.185180511528e-35
5.5011019805736e-36
1.3786335966015e-36
3.4400437368156e-37
8.5480848752906e-38
2.1155943767215e-38
5.2157798960205e-39
1.2811203418225e-39
3.1354602470722e-40
7.6472783861245e-41
1.8589049420375e-41
4.5040143474345e-42
1.0878766683771e-42
2.6196271196434e-43
6.2895501679665e-44
1.5057688284084e-44
3.594942508746e-45
8.5596469131728e-46
2.0327113005289e-46
4.8156628304497e-47
1.1362965884122e-47
2.7164045479822e-48
5.5518584836714e-49
2.4433378143223e-49
0
0
0
0
0
1.0706071455021e-37
1.6154499259908e-35
1.030069028417e-33
3.9360903868569e-32
1.0479285274815e-30
2.1069909386944e-29
3.3639021304882e-28
4.3926112306839e-27
4.7650508649795e-26
4.3676527365394e-25
3.3804906343945e-24
2.2409760758871e-23
1.3122374029647e-22
7.2571984982975e-22
4.6849265670553e-21
3.408309513708e-20
2.0827543994628e-19
1.0846181428049e-18
4.9647453688381e-18
1.9613388462355e-17
6.4881644593729e-17
1.7580776388312e-16
3.8661353896421e-16
6.9816375381769e-16
1.0824282011877e-15
1.5442254025047e-15
2.157118227374e-15
3.0449787246756e-15
4.2979212937342e-15
5.7286323994091e-15
6.6412094321381e-15
6.7344993330125e-15
6.5866043189323e-15
6.0878084010147e-15
5.0843638232777e-15
3.6691433930087e-15
2.1961048862471e-15
1.0523212134977e-15
3.9990435737581e-16
1.2613975636354e-16
3.6574218445715e-17
1.0790148760209e-17
3.3858191510298e-18
1.1260684796585e-18
3.8998527115959e-19
1.3825682346414e-19
4.9420248189359e-20
1.7571176735147e-20
6.142646664742e-21
2.0929545511798e-21
6.9133405386272e-22
2.2103782029838e-22
6.8547709120184e-23
2.0713868940484e-23
6.1319127274279e-24
1.7862699659191e-24
5.1353327883682e-25
1.459174882254e-25
4.1009328710196e-26
1.1405823097523e-26
3.1411803081033e-27
8.5716045213678e-28
2.319054236547e-28
6.2242565498946e-29
1.6580841409779e-29
4.3858635438827e-30
1.1523913076923e-30
3.0087967880011e-31
7.808592749702e-32
2.0149638267139e-32
5.1712243347136e-33
1.3202581564506e-33
3.3540003365834e-34
8.4800446393626e-35
2.1342702532288e-35
5.3480620312163e-36
1.3344840040778e-36
3.3164200294365e-37
8.2097476432131e-38
2.0246739428796e-38
4.9751090773425e-39
1.2182213599947e-39
2.9728752401331e-40
7.2310601642906e-41
1.753264407602e-41
4.2379509623125e-42
1.0213349638877e-42
2.4542724883242e-43
5.8810796636037e-44
1.4053962658385e-44
3.3500672641e-45
7.9528979601974e-46
1.9123189217692e-46
3.9355983017187e-47
1.7391130402529e-47
0
0
0
0
0
4.0972332710834e-36
4.3567980807274e-34
2.220800295027e-32
7.273556275281e-31
1.7312794218691e-29
3.2067172035359e-28
4.8272735336168e-27
6.0696618599631e-26
6.4750855458128e-25
5.9451311387636e-24
4.681058435528e-23
3.2038411210474e-22
1.887701803746e-21
9.6750622268095e-21
5.163290947008e-20
3.0955532583855e-19
3.4345128533826e-18
4.0900359521989e-17
3.0881433887205e-16
1.5520786463346e-15
5.9263845154049e-15
1.7147889696119e-14
3.5790760437565e-14
5.04949305741e-14
5.2113686717417e-14
4.9366914007641e-14
4.6011882765619e-14
4.7244543342737e-14
5.2731348288632e-14
6.3855549443509e-14
7.6988225906915e-14
8.1949531578643e-14
8.0981501612103e-14
7.6222209915774e-14
6.530387277132e-14
4.8225570382958e-14
2.9544729817346e-14
1.4552949000755e-14
5.7569586618907e-15
1.9232044530753e-15
5.9720271034473e-16
1.8845235831113e-16
6.2837590662374e-17
2.2108431543391e-17
8.0817749397609e-18
3.0182647649777e-18
1.1340935226933e-18
4.2309763893063e-19
1.5501960690567e-19
5.5296138225613e-20
1.90810046376e-20
6.3486829432478e-21
2.0378650492333e-21
6.3367380031072e-22
1.9205440709783e-22
5.7077618781634e-23
1.6706544859417e-23
4.8277195619967e-24
1.3788478610252e-24
3.8946220561033e-25
1.0884979041853e-25
3.012195339697e-26
8.259039983976e-27
2.2451561589925e-27
6.054506394389e-28
1.6204547259495e-28
4.306317233078e-29
1.1367172178006e-29
2.9814522279031e-30
7.7726877281415e-31
2.0146978170093e-31
5.1935089673856e-32
1.3317778406367e-32
3.3979895614412e-33
8.62827082651e-34
2.1808336249391e-34
5.4877966416178e-35
1.375069138966e-35
3.4314021912804e-36
8.5291234525042e-37
2.1119517298473e-37
5.210361487297e-38
1.2808849486552e-38
3.1380642783228e-39
7.662512724735e-40
1.8650215206569e-40
4.5252538992296e-41
1.0946856149921e-41
2.6403579764847e-42
6.3502824567505e-43
1.5233049032718e-43
3.6387897657211e-44
8.8021844047497e-45
1.8241487389982e-45
8.0969411256603e-46
0
0
0
0
4.2954498208282e-49
7.4828695308084e-35
6.9006038507161e-33
3.134345023117e-31
9.339057039213e-30
2.0535642163311e-28
3.5562388234206e-27
5.0593619175235e-26
6.0802599981075e-25
6.2888250981987e-24
5.6759363217799e-23
4.4698030717481e-22
3.1038193232346e-21
1.8741042543339e-20
9.7918901209562e-20
4.6638326516969e-19
2.1719895400194e-18
2.1506145235375e-17
2.7831965561684e-16
2.7185073929202e-15
4.4554850263549e-14
2.79347917437e-13
9.8681495069189e-13
1.9455006935139e-12
2.1285851322593e-12
1.9565935669946e-12
1.5402872960451e-12
1.0134676725185e-12
6.1820399293796e-13
5.3661505101793e-13
5.6471853306098e-13
6.2876649152075e-13
6.7924267539106e-13
6.7841635942768e-13
6.4954079910049e-13
5.687357104352e-13
4.3016620697142e-13
2.6988119399207e-13
1.3675484095875e-13
5.6371237248332e-14
1.9978228070951e-14
6.6642110658824e-15
2.2612747852898e-15
8.0667620497705e-16
3.0213726642565e-16
1.1710907763724e-16
4.620666573603e-17
1.8287470799669e-17
7.1736624623656e-18
2.7622991936467e-18
1.0354217566526e-18
3.7505851671907e-19
1.3059077960284e-19
4.3635091967679e-20
1.4031086786544e-20
4.3695396730902e-21
1.3277634611687e-21
3.9614372498602e-22
1.1649803522521e-22
3.3832036842271e-23
9.7102069138589e-24
2.7557989992884e-24
7.7383129289403e-25
2.1514369007251e-25
5.9265357722257e-26
1.6186025709629e-26
4.3851610399498e-27
1.1790806998326e-27
3.1477282037842e-28
8.3466498584505e-29
2.1990730381862e-29
5.7586152732463e-30
1.4992510102886e-30
3.8817279706294e-31
9.9971850050555e-32
2.5617193629065e-32
6.532488167649e-33
1.6580764547324e-33
4.1897590268936e-34
1.05416005654e-34
2.6413547549539e-35
6.5919646174285e-36
1.6388238149099e-36
4.0591640503668e-37
1.0018027461555e-37
2.4638847171534e-38
6.0394800852509e-39
1.47558959066e-39
3.5938657135176e-40
8.7263020451584e-41
2.1125301073903e-41
5.1002089899895e-42
1.2260440496887e-42
2.9839546558287e-43
6.227066130911e-44
2.7774425018257e-44
0
0
0
0
-1.0343630292938e-60
8.6575043762965e-34
7.4279395821963e-32
3.1628090221773e-30
8.8915701921771e-29
1.8543370209244e-27
3.0568131184195e-26
4.1512690297699e-25
4.7774037236419e-24
4.7583425070006e-23
4.1678681049152e-22
3.2298025888588e-21
2.2331068676174e-20
1.3615263607228e-19
7.3426204463616e-19
3.5086155648625e-18
1.4213675849389e-17
8.5379325602853e-17
8.5926206642107e-16
1.0276668100496e-14
1.3460396515353e-13
1.2669478568879e-12
7.2878759174223e-12
2.4660114596806e-11
4.388182999197e-11
4.3123634272544e-11
3.4466982175474e-11
2.2986239730507e-11
1.2648174302706e-11
6.2393085257964e-12
3.7677264373076e-12
3.6606352895993e-12
3.8184877491776e-12
3.8983379645926e-12
3.8159755545245e-12
3.4606229653367e-12
2.7190373281279e-12
1.7592985637412e-12
9.1834744570268e-13
3.941962467175e-13
1.4842861422128e-13
5.3449980117305e-14
1.9645467697157e-14
7.5556232870248e-15
3.0320175473267e-15
1.2520503247993e-15
5.2377886970506e-16
2.1902735933863e-16
9.0629943955885e-17
3.6812181505087e-17
1.4565644132606e-17
5.5690934375645e-18
2.042482425278e-18
7.1540882969818e-19
2.3945147517235e-19
7.7015804673338e-20
2.4007550230809e-20
7.3140010690628e-21
2.1907725501044e-21
6.4723583947323e-22
1.888537354316e-22
5.4454978455435e-23
1.5524781336582e-23
4.3790255923022e-24
1.2229691928083e-24
3.3841419373537e-25
9.2842797567011e-26
2.5266630281129e-26
6.8241516258737e-27
1.8299253923362e-27
4.8737811169749e-28
1.2897246545e-28
3.3920640985455e-29
8.8693837596194e-30
2.3062229018742e-30
5.9647826959776e-31
1.5348733860642e-31
3.9303117055669e-32
1.0017133270282e-32
2.5415674784166e-33
6.4206064676759e-34
1.6152375279684e-34
4.0471385496e-35
1.0101189611807e-35
2.5116989155941e-36
6.2228272933532e-37
1.5363299391564e-37
3.7801277248981e-38
9.2704257153308e-39
2.2662532708165e-39
5.5229009961791e-40
1.3421029408984e-40
3.2470729527679e-41
7.9519728372131e-42
1.6710296332002e-42
7.4918196443712e-43
0
0
0
0
0
7.1700198915912e-33
5.9084327647181e-31
2.4194627446344e-29
6.5521789427162e-28
1.3180173191224e-26
2.0976500711297e-25
2.7510299073375e-24
3.0576348995344e-23
2.9416566141704e-22
2.4924192389288e-21
1.8797923405197e-20
1.2751661292834e-19
7.7322405739007e-19
4.2077356556651e-18
2.0615997297337e-17
8.5107615263494e-17
3.5313155338308e-16
2.0566570753635e-15
1.8660268383548e-14
1.8212787927995e-13
1.6471483798683e-12
1.0391021363195e-11
6.9230464828776e-11
5.7167909592767e-10
9.8223343305185e-10
9.4280000760909e-10
5.6043753828964e-10
2.5081979950192e-10
8.9330401307924e-11
3.1027179285133e-11
1.6701447940363e-11
1.5162512766787e-11
1.561764868758e-11
1.5592177135608e-11
1.4443539636214e-11
1.1603132120786e-11
7.7161619914075e-12
4.1978965709251e-12
1.9226709462115e-12
7.9034676593203e-13
3.13678471522e-13
1.2657693516853e-13
5.2987892382508e-14
2.2952763286697e-14
1.0157227884556e-14
4.5269690312953e-15
2.0090321810991e-15
8.8083633780097e-16
3.7920040085859e-16
1.5921267775769e-16
6.4647180797208e-17
2.5153538725266e-17
9.310187377633e-18
3.2697903912182e-18
1.0936163992013e-18
3.5137937883869e-19
1.0959669582903e-19
3.34747941477e-20
1.0065870310691e-20
2.9869811287996e-21
8.7543324372684e-22
2.5352153924985e-22
7.2586133363744e-23
2.0561616874297e-23
5.7671426997932e-24
1.6027682650858e-24
4.4162250940419e-25
1.2070584989133e-25
3.2741682352483e-26
8.8175586392681e-27
2.3584880831791e-27
6.2676724836944e-28
1.6553997593595e-28
4.3465920622184e-29
1.1349054796069e-29
2.9474190381178e-30
7.6154251551848e-31
1.9579795729765e-31
5.0103632124059e-32
1.2763121732177e-32
3.2370221892517e-33
8.1753285111793e-34
2.0563684935502e-34
5.1522195780536e-35
1.2860071842337e-35
3.1981781725023e-36
7.9254465266967e-37
1.9572909079089e-37
4.8177522149046e-38
1.1820284100918e-38
2.8914599936974e-39
7.0412041383357e-40
1.7352623574206e-40
3.6718860366782e-41
1.6552390451722e-41
0
0
0
0
0
4.5572213323874e-32
3.6670353352983e-30
1.464936025742e-28
3.868219741903e-27
7.5864864397925e-26
1.1770749076255e-24
1.5040016897151e-23
1.6267903682459e-22
1.5203858120201e-21
1.2492352034039e-20
9.1441693914854e-20
6.034958740125e-19
3.5938348384465e-18
1.9427804632227e-17
9.5297188202897e-17
4.149135040598e-16
1.6042672532423e-15
6.10078990081e-15
3.1390781450808e-14
1.9636332910621e-13
1.4482828724968e-12
9.477529441088e-12
6.1013692025279e-11
3.9487649074704e-10
3.5703030580206e-09
1.225205181376e-08
9.6453267082076e-09
4.7611719684543e-09
1.8369206081913e-09
6.7381542934406e-10
2.7934577065396e-10
1.3293986829121e-10
7.6102827671545e-11
5.3302592745799e-11
4.0712090362924e-11
3.011812857802e-11
2.0200185899136e-11
1.1899155879822e-11
6.1623450080416e-12
2.9085841579474e-12
1.319074220024e-12
5.9986763166545e-13
2.7871043021403e-13
1.3213016607751e-13
6.3262361417014e-14
3.0259162522626e-14
1.4344584743697e-14
6.7057851395861e-15
3.0784792462354e-15
1.3800435065895e-15
5.9904635919286e-16
2.4915298970967e-16
9.8292119255539e-17
3.6552006697511e-17
1.2818940124056e-17
4.2722581633928e-18
1.3694830508182e-18
4.2729407089695e-19
1.3086052140184e-19
3.9503351820675e-20
1.1771720826414e-20
3.4643027474541e-21
1.0072611038245e-21
2.8953822763593e-22
8.2348484455798e-23
2.3191661927839e-23
6.4719194961999e-24
1.7906588981885e-24
4.9146255232558e-25
1.3386314964107e-25
3.6199431630645e-26
9.7224164059857e-27
2.5943361283026e-27
6.8800752325088e-28
1.8138415677606e-28
4.7550957706285e-29
1.2398776196655e-29
3.2162971666733e-30
8.3019964880331e-31
2.1327647248515e-31
5.4540201378295e-32
1.388603178189e-32
3.5204387985463e-33
8.8886954239959e-34
2.2354415264802e-34
5.6005488786675e-35
1.3979592920293e-35
3.4770161027218e-36
8.6182020781623e-37
2.1289423949833e-37
5.2427812088738e-38
1.2851422468364e-38
3.1874504865456e-39
6.7917931031965e-40
3.079234369072e-40
0
0
0
0
0
2.3214277329812e-31
1.842048868181e-29
7.2459419172774e-28
1.8814459239247e-26
3.62522032081e-25
5.5218547938006e-24
6.9180752260121e-23
7.3266662064464e-22
6.6918432794625e-21
5.3567194008093e-20
3.8097279208384e-19
2.4365621319972e-18
1.4122481173469e-17
7.4675632420539e-17
3.6196829375116e-16
1.6005265320438e-15
6.3584872350157e-15
2.2593670129029e-14
7.6613101430494e-14
2.8319786443966e-13
1.1992395838797e-12
6.3494073389447e-12
3.586057592426e-11
2.0363533853389e-10
1.6604869695572e-09
9.3131082368736e-09
6.3497744201261e-08
5.6228844335202e-08
3.6145673390518e-08
2.2784186860146e-08
1.2281860980175e-08
5.0004191634166e-09
1.3251563810067e-09
3.0405435308822e-10
1.1807684946846e-10
6.6099580780165e-11
3.8864704070903e-11
2.253337498326e-11
1.278148371888e-11
7.0397418660926e-12
3.8029551101915e-12
2.0341736634278e-12
1.0835878791383e-12
5.7447082757161e-13
3.020029664946e-13
1.5682520729278e-13
8.0218159283748e-14
4.0346721453009e-14
1.9912651298082e-14
9.6024064016958e-15
4.4887731728609e-15
2.011195850543e-15
8.5294589322964e-16
3.3898770902365e-16
1.2580994096944e-16
4.3831345328525e-17
1.4516623289776e-17
4.6399500490832e-18
1.4489385099114e-18
4.4515887399342e-19
1.3492008535953e-19
4.036538568319e-20
1.1924103475227e-20
3.479831097422e-21
1.004037225278e-21
2.8666137389893e-22
8.1049490510857e-23
2.2707917105495e-23
6.3080163600456e-24
1.7382415205785e-24
4.7535855836992e-25
1.2906284965884e-25
3.4802427666438e-26
9.3237825248142e-27
2.4824631863727e-27
6.5705937077969e-28
1.729302807172e-28
4.5267570196242e-29
1.1788282409403e-29
3.0545820908772e-30
7.8772671383906e-31
2.0220918733058e-31
5.1677527903969e-32
1.3150659333486e-32
3.3327558965813e-33
8.4126159259254e-34
2.1153785019243e-34
5.2994300541025e-35
1.3228379143863e-35
3.2905054760544e-36
8.1585401445258e-37
2.0132761272241e-37
5.0258902393839e-38
1.0784054326954e-38
4.9186222108523e-39
0
0
0
1.9781215239364e-60
2.6301236408641e-45
9.7355510121081e-31
7.6720051597945e-29
2.9922541416392e-27
7.6923458445446e-26
1.4651761332376e-24
2.2032156728271e-23
2.7213659260418e-22
2.837688317785e-21
2.5474255918465e-20
1.9984687294493e-19
1.3881213492795e-18
8.6260499331307e-18
4.8454006133656e-17
2.4773283118078e-16
1.1672824307651e-15
5.0725064796891e-15
2.0395290638435e-14
7.3862505653969e-14
2.4277611828689e-13
7.1939645363932e-13
1.9098745350423e-12
6.3540093793006e-12
1.6606704171498e-11
7.1406249905188e-11
3.8375331410011e-10
4.180861322801e-09
4.9448164090561e-08
3.6989215920392e-07
9.3541684618913e-07
7.9367179539475e-07
4.2769844317931e-07
1.3308165214016e-07
2.4691390531905e-08
5.4532956973853e-09
1.7107538165451e-09
5.6971553288521e-10
1.5786847786075e-10
4.1569233947975e-11
1.86597814602e-11
1.1816335334068e-11
7.7108794167065e-12
4.9290013796749e-12
3.0724562116735e-12
1.8594602811827e-12
1.0941260924004e-12
6.2736711326852e-13
3.5130371851179e-13
1.9245000251692e-13
1.0319076697122e-13
5.402215944407e-14
2.7420868970579e-14
1.3339504646239e-14
6.1310413043655e-15
2.6270430635098e-15
1.0413156579397e-15
3.8252467878171e-16
1.3178106004232e-16
4.3334041082485e-17
1.3828275995469e-17
4.3282165713364e-18
1.3349801020737e-18
4.0624287478432e-19
1.2199187459008e-19
3.6164230167915e-20
1.0591386663051e-20
3.0671670540581e-21
8.7902234355142e-22
2.4949215269344e-22
7.0174201733472e-23
1.9570224055162e-23
5.4140323049364e-24
1.4864213217229e-24
4.0516456798444e-25
1.0968489571623e-25
2.9500681786006e-26
7.885320399124e-27
2.0952240294289e-27
5.5357685191468e-28
1.4546749243462e-28
3.802694141923e-29
9.8910961123151e-30
2.5604080357505e-30
6.5972716777573e-31
1.692324802354e-31
4.3225144026821e-32
1.0994807793877e-32
2.7854707538153e-33
7.0295429841336e-34
1.7673737118725e-34
4.4273863278531e-35
1.1053547818829e-35
2.7462773419346e-36
6.9011704361334e-37
1.491220056822e-37
6.8442513064198e-38
0
0
0
1.4839313222044e-58
6.3499416892048e-44
3.4154083437922e-30
2.6883638873561e-28
1.0453913063419e-26
2.6757293503736e-25
5.0649179662882e-24
7.5562047559857e-23
9.2487722862954e-22
9.5445251893497e-21
8.4666114370709e-20
6.5506680384383e-19
4.4747525006071e-18
2.7228182799489e-17
1.4900682959459e-16
7.3775222995288e-16
3.3434458136626e-15
1.3971578923748e-14
5.4505679593307e-14
1.9667067759111e-13
6.5926235231474e-13
2.0128085986396e-12
5.8374818524574e-12
1.2957066714998e-11
2.5045562196321e-11
4.0206483564058e-11
8.8928567497397e-11
1.5060026431599e-09
2.6812036871368e-08
4.7738069460933e-07
4.6880501041889e-06
1.0169738530419e-05
5.871716052061e-06
2.3024776529347e-06
7.6786219992054e-07
2.1054370917137e-07
5.4105942302772e-08
1.4310963295515e-08
3.444256270962e-09
5.2222503899942e-10
4.4719485584401e-11
1.434387194084e-11
1.1066036499125e-11
9.0061133649814e-12
6.5862002909436e-12
4.5280876221382e-12
3.0112104098773e-12
1.9354035886772e-12
1.2048260046155e-12
7.2908497828322e-13
4.2998705746227e-13
2.4696789354717e-13
1.3733681470637e-13
7.3105643167694e-14
3.6681768199988e-14
1.7074851740662e-14
7.2886933261165e-15
2.8474188776085e-15
1.0283150290804e-15
3.4993412390983e-16
1.1453697862689e-16
3.6598399423432e-17
1.1500965385822e-17
3.5626203393889e-18
1.0883120577682e-18
3.2796482629852e-19
9.7563388516473e-20
2.8676252976514e-20
8.335404322493e-21
2.3979983941163e-21
6.8326343797144e-22
1.9293153248267e-22
5.4016037929679e-23
1.5002114207787e-23
4.1350343136004e-24
1.1315473459013e-24
3.0753082181227e-25
8.3036532950511e-26
2.2281542270604e-26
5.9434338820923e-27
1.5763671750235e-27
4.1582309816652e-28
1.0911573183808e-28
2.8489404099592e-29
7.4025333871081e-30
1.9145063066945e-30
4.9293102906786e-31
1.2636811008596e-31
3.2260847603398e-32
8.2028007686533e-33
2.0775672816208e-33
5.2420658019744e-34
1.3180265668284e-34
3.2974578683385e-35
8.3423256770893e-36
1.8154697089913e-36
8.3873131570029e-37
0
0
0
1.6020202544177e-58
1.1156060793335e-44
1.008816686902e-29
7.9720952041465e-28
3.1056879194403e-26
7.9528303085884e-25
1.5032417946802e-23
2.235449850571e-22
2.7241092237682e-21
2.7949661741397e-20
2.4618264557174e-19
1.8888419355175e-18
1.276872159111e-17
7.6715614159637e-17
4.1287486104968e-16
2.0004745384276e-15
8.7925840570719e-15
3.5342914180591e-14
1.3086982213584e-13
4.5209494953478e-13
1.4580110352333e-12
4.514610551746e-12
1.3468226826675e-11
4.1733194537564e-11
9.0984941081711e-11
9.5974975478724e-11
1.0494957846723e-10
4.3350406134966e-10
7.9270672746511e-09
2.4213372607192e-07
1.9953780520143e-06
1.0646510537209e-05
5.4018830616326e-05
3.9736392244153e-05
1.9531279143638e-05
7.2055218323473e-06
1.6900492693963e-06
3.8473324476624e-07
1.1091123834178e-07
2.5370971098206e-08
2.3941606505304e-09
9.9143549120454e-11
2.368097722573e-11
1.1681815303086e-11
9.9461821680142e-12
8.7782228052822e-12
6.7156593491699e-12
4.7737980440213e-12
3.2970651524685e-12
2.2172338941044e-12
1.4511674836955e-12
9.2294703838708e-13
5.6703658446815e-13
3.3268691293007e-13
1.8339087354695e-13
9.3289029887239e-14
4.315933098067e-14
1.8064463590706e-14
6.8944418292862e-15
2.446280792151e-15
8.2597569998655e-16
2.7041360326371e-16
8.6756056917293e-17
2.7390609768045e-17
8.5200636018364e-18
2.6123559071452e-18
7.9005185926834e-19
2.3588324166653e-19
6.9593264572145e-20
2.0307050164166e-20
5.8650083405567e-21
1.6777231172701e-21
4.7561343872384e-22