/*--------------------------------*- C++ -*----------------------------------*\
  =========                 |
  \\      /  F ield         | OpenFOAM: The Open Source CFD Toolbox
   \\    /   O peration     | Website:  https://openfoam.org
    \\  /    A nd           | Version:  7
     \\/     M anipulation  |
\*---------------------------------------------------------------------------*/
FoamFile
{
    version     2.0;
    format      ascii;
    class       volScalarField;
    location    "2.6";
    object      alpha.water;
}
// * * * * * * * * * * * * * * * * * * * * * * * * * * * * * * * * * * * * * //

dimensions      [0 0 0 0 0 0 0];

internalField   nonuniform List<scalar> 
6000
(
0
0
0
0
0
0
0
0
0
0
0
0
0
0
0
0
0
0
0
0
0
0
0
0
0
0
0
0
0
0
0
0
0
0
0
0
0
0
0
0
0
0
0
0
0
0
0
0
0
0
0
0
0
0
0
0
0
0
0
0
0
0
0
0
0
0
0
0
0
0
0
0
0
0
0
0
0
0
0
0
0
0
0
0
0
0
0
0
0
0
0
0
0
0
0
0
0
0
0
0
0
0
0
0
0
0
0
0
0
0
0
0
0
0
0
0
0
0
0
3.436281789949e-205
4.9947388375144e-205
8.1429434254071e-205
4.184119443073e-206
0
8.9104798054717e-186
2.3492310716006e-185
1.0277246096155e-219
6.494582333053e-237
1.0206407629924e-202
8.8419269274611e-187
3.1768398788408e-186
8.165126103939e-203
5.7462114800379e-187
1.0538872966642e-186
2.2593028784548e-186
3.6035085105508e-186
-2.2697939546791e-257
1.6640022381182e-222
1.7048091709369e-187
1.9106394832424e-187
1.5096638480243e-225
3.5850786833881e-188
3.3684596405858e-241
3.8176370259075e-189
3.9868779804389e-206
6.7289749583261e-190
5.7611852452519e-190
1.9934389902195e-206
8.2307527547478e-191
1.4950792426646e-206
1.104434022633e-191
7.7111911733189e-192
1.1680306583318e-206
9.3147257329955e-193
1.9447710461227e-206
2.8285809109267e-206
1.9557256138591e-194
4.5994248918318e-206
2.1672884838864e-195
1.3592211558441e-205
2.3121657097294e-196
1.7400987348558e-204
1.7256255987587e-197
3.339460226503e-205
1.4236611866723e-198
6.353426341375e-199
6.4994288447727e-200
5.120201993058e-200
3.0397870802175e-200
1.155983969474e-200
6.4615283363578e-201
2.6770757102104e-203
5.8205926684108e-202
3.2535905260331e-203
4.9897878578455e-203
1.3400765246868e-203
1.02521276742e-203
4.7503089225584e-204
1.7971462045616e-204
9.6296428081966e-205
3.3621924508417e-205
1.6786619394441e-205
5.630257396495e-206
2.6950338231633e-206
1.1176845004442e-206
3.5523747033974e-207
1.5890527210139e-207
4.8993256314455e-208
2.1174223039403e-208
6.3670047859965e-209
2.1324250563801e-209
8.8475825839248e-210
2.5803945819638e-210
1.0457616379712e-210
2.9960152743114e-211
1.1881308167257e-211
4.1384025703936e-212
1.1539931394178e-212
4.4180518162937e-213
1.73812976328e-213
0
0
0
0
0
0
0
0
0
0
0
0
0
0
0
0
0
0
0
3.8785955232686e-148
2.1272338446452e-144
4.6787288601695e-153
8.9922787312122e-137
2.9114819891913e-119
1.2007272706808e-119
4.1823385242923e-121
5.116109386183e-120
1.1150317738449e-121
-3.4201112225592e-130
9.104738050942e-121
1.9245275493696e-120
5.8431085544789e-119
7.7305260266579e-121
-5.1054153441042e-138
9.5250437407022e-120
3.3971773225931e-119
1.1141803662031e-118
9.9357780176754e-120
1.0931901578182e-119
4.8788945587358e-119
5.5032841073188e-136
4.9012908336294e-119
3.2195926542046e-123
-7.0403341607302e-137
6.6105861925419e-122
3.365431465964e-228
1.6249088520151e-121
2.5841218479244e-122
1.351508797019e-122
8.0542896796149e-123
2.5849491041766e-123
3.932373479604e-123
5.9840982401481e-124
1.3564406958279e-124
1.1037555315907e-124
0
7.4382636748849e-126
0
1.2295441983417e-130
0
4.0657182231813e-132
3.215614064044e-129
0
1.5820276883631e-131
0
0
1.4819886109848e-132
0
2.4497287613616e-137
0
3.7183321957087e-136
2.2580152176717e-136
4.6063327385851e-136
2.9145136864419e-140
0
-1.4567071740625e-155
3.0655737475039e-139
4.6028678571159e-143
0
4.5372012315184e-142
0
2.2318721729654e-142
0
3.6944973794401e-147
3.2203525424243e-144
2.0995149352239e-144
4.7611096801737e-145
7.0624686204341e-162
8.6094368118257e-150
6.4027759224702e-147
0
3.9748110381999e-148
0
5.2176544527014e-150
4.9649015607831e-150
1.9952033735006e-150
3.6090764295356e-151
0
7.7571291422619e-153
2.3190789172817e-152
0
0
0
0
0
0
0
0
0
0
0
0
0
0
0
0
0
-4.0234098253773e-86
-5.4958099484948e-85
-5.8704098611915e-84
-4.1226636118199e-83
-1.9196800268741e-82
-7.6767870698908e-82
4.1765355269887e-69
-1.1510901798289e-71
1.9805939169758e-72
-3.8747014089601e-73
-6.0068341602745e-75
6.0068192813155e-75
5.7169205676014e-71
-2.5759181466642e-73
2.7401133712396e-99
-7.8546661945526e-83
7.8546662888552e-83
6.0263262583586e-66
1.0008495942612e-59
4.4364411414973e-59
-7.5569772305502e-63
8.7642130074026e-61
9.8473494307918e-61
1.4266847299145e-60
9.2200496392267e-60
5.1463846950918e-59
1.863559913114e-58
8.6684197062669e-58
3.1112616953516e-57
1.2543407238157e-56
3.4915983081929e-56
1.0919906984939e-55
3.1293112632859e-55
8.5306012594555e-55
2.0775751304985e-54
4.072832770208e-54
9.6317116124502e-54
1.940030287548e-53
3.6064341206144e-53
8.1480277083507e-53
1.2479043540617e-52
1.9700387783859e-52
2.0862979672373e-52
2.047439976567e-52
2.1433219170275e-52
1.986253682703e-52
1.891401666716e-52
1.5486059342209e-52
1.1316934885208e-52
7.3453232835062e-53
3.1740718443864e-53
9.5280846256191e-54
8.4988092505525e-55
5.0055815906706e-56
2.6734877295369e-56
2.1581684796737e-57
1.1157049736832e-57
9.2209165844555e-59
1.4637818979398e-59
8.0271076274109e-60
7.0750976731421e-61
8.3489820833819e-62
2.0415978817048e-62
4.1941909559064e-63
7.8177746185055e-64
4.5607750915097e-64
1.6600475509063e-64
1.10816379411e-65
4.7511633495404e-66
3.9027153681539e-67
6.1997843297827e-68
3.4886935614417e-68
1.2672500376943e-68
1.0140888366176e-69
1.2443092707411e-70
6.8554815096441e-71
2.3647095645313e-71
3.9833131652488e-72
1.3313487848467e-72
2.3427000523485e-73
5.3100650992886e-74
1.1603556022851e-74
6.3704910506534e-75
0
0
0
0
0
0
0
0
0
6.1245953709593e-65
5.3177823129931e-63
1.3251080392973e-61
2.619972265999e-60
4.0722310609474e-59
5.0001144213812e-58
1.2674179981696e-56
1.1981150724187e-55
1.0288343424498e-54
7.6014508038925e-54
6.5962266170636e-53
2.0392207742518e-52
6.1893183705783e-53
3.7913407096149e-51
5.5917515679565e-52
-5.3174179818432e-61
-3.601310090666e-65
-1.5034242768836e-68
0
2.340838177346e-95
3.2600444683775e-71
6.7201047838826e-51
1.1869459682199e-67
0
2.5057314913324e-50
6.7907101504143e-66
8.6315588872453e-44
4.4249934661099e-43
-1.2295952815224e-48
3.2046747436882e-45
1.2356003077924e-60
1.6495244500682e-60
6.9188605493425e-47
5.7041901033594e-59
1.4889365573156e-58
5.9296144827312e-49
6.2490354866066e-50
1.9169902881272e-49
3.820954760952e-56
2.8372747888513e-49
3.2820903030585e-46
1.2624978776705e-50
7.1973597900651e-48
4.4089502098248e-54
2.723517490262e-45
2.166060498563e-49
3.9007591307046e-53
8.9348295022e-47
1.3383066479138e-52
1.7416877551377e-47
2.2178185327991e-52
2.1872739996077e-52
1.2698210954949e-48
2.1250552390807e-52
2.2985016435192e-49
1.5194333450697e-52
1.2117324167449e-52
8.4915435429068e-51
3.5308601638308e-53
1.5260550679826e-51
1.6797822553406e-54
3.2168846836068e-55
8.2090026915042e-52
6.7361482715575e-56
8.3301178506798e-53
5.6321352874233e-58
1.0539865665152e-58
6.7440662740387e-54
4.8491200367801e-58
7.7712873657696e-61
1.6250385285064e-59
3.0066456887272e-62
5.7449397297176e-63
2.6884891137742e-57
9.507763985261e-58
5.8946069422811e-65
1.1661664037955e-57
5.2379507018374e-61
4.4846249082501e-67
1.3818769010896e-60
1.0406214533975e-60
4.6971946022065e-69
7.7918650533814e-63
8.2983082636879e-62
2.6443462656152e-62
5.3252914141939e-64
1.8078857158858e-62
5.577344002908e-65
2.0775287007524e-63
2.3613115225409e-64
2.5687149022124e-64
0
0
0
0
0
0
0
1.5083960952755e-55
1.7613724053805e-53
1.0095911314916e-51
3.7872946806723e-50
1.0483015135099e-48
2.2887464676215e-47
4.1014856448103e-46
6.1762301059696e-45
7.937245594197e-44
8.8400279726234e-43
8.7119151509845e-42
7.8057644585275e-41
6.5402184903777e-40
5.2310468736944e-39
4.0235249664246e-38
2.9633147107576e-37
2.0692933363466e-36
1.3566023083921e-35
8.2894014377565e-35
4.7009419701757e-34
2.4695092410381e-33
1.2012932636284e-32
5.4143395057022e-32
2.263361949656e-31
8.7866328824394e-31
3.1719668025854e-30
1.066224258985e-29
3.3415319671171e-29
9.7762339945234e-29
2.6734675193177e-28
6.842478670372e-28
1.6412263669551e-27
3.6944928319413e-27
7.8166491012644e-27
1.5567905081534e-26
2.9229366266234e-26
5.1796597654628e-26
8.6678209028365e-26
1.3689345413781e-25
2.0350420980114e-25
2.827088378474e-25
3.6015372628409e-25
4.076453759402e-25
4.1516455541517e-25
4.1071044444749e-25
3.9407899769279e-25
3.571336109069e-25
2.9683356045715e-25
2.20626214822e-25
1.425087736677e-25
7.75620208279e-26
3.4592397461595e-26
1.2532158568933e-26
3.8097395822546e-27
1.0502029754517e-27
2.8553472677906e-28
7.9977876948645e-29
2.3125993348762e-29
6.8228675362028e-30
2.036912463926e-30
6.1352250101985e-31
1.8625359709414e-31
5.6893464506028e-32
1.7433028843081e-32
5.3378673772854e-33
1.6273115890271e-33
4.9263009935345e-34
1.4787013737404e-34
4.3989384344628e-35
1.297119083276e-35
3.7925103633802e-36
1.0998648803387e-36
3.1647805764287e-37
9.0375648291466e-38
2.5619758458081e-38
7.2116170866704e-39
2.0162579971963e-39
5.6006158805254e-40
1.5460275457099e-40
4.2422835008067e-41
1.1574073246374e-41
3.1403218378016e-42
8.4753075626119e-43
2.2757107763801e-43
6.0805247843426e-44
1.6169801434384e-44
4.2803882352051e-45
1.1280486517416e-45
2.9611079604665e-46
7.7205957471121e-47
2.0498013913259e-47
4.4652622057186e-48
2.3257165317404e-48
0
0
0
0
0
0
1.3565557475148e-55
2.3570321320134e-53
1.8249948006673e-51
8.7860412792185e-50
3.0137235480871e-48
7.9464147959702e-47
1.6907453744945e-45
2.9942623963828e-44
4.5033396670931e-43
5.8432953252061e-42
6.6259853728323e-41
6.632248021436e-40
5.9299568694145e-39
4.8350764997566e-38
3.6932321684767e-37
2.6994460192095e-36
1.9017288040583e-35
1.2864616173191e-34
8.2907675741609e-34
5.0492000055298e-33
2.885849303719e-32
1.5398091469994e-31
7.643104605946e-31
3.5220397475382e-30
1.5053509465062e-29
5.9666573138946e-29
2.1939290211628e-28
7.4886741504449e-28
2.3750871703801e-27
7.0072823798593e-27
1.9258965259777e-26
4.9394904126444e-26
1.1846599117471e-25
2.6630797258085e-25
5.6249240154419e-25
1.1188899547232e-24
2.0998981536766e-24
3.7226416829194e-24
6.2357796624436e-24
9.8633570098121e-24
1.4696300622644e-23
2.0492243668348e-23
2.6289002900669e-23
3.0096784932713e-23
3.0885105513792e-23
3.0612703508592e-23
2.9524458072529e-23
2.7019985721288e-23
2.2766894801519e-23
1.7240729543781e-23
1.1418090074763e-23
6.4253699285081e-24
2.9923098793443e-24
1.1413578107435e-24
3.6570456724875e-25
1.0527773240652e-25
2.9485803575191e-26
8.4341673002634e-27
2.4868981957932e-27
7.499787252988e-28
2.2958254939557e-28
7.1084433806422e-29
2.2216821672538e-29
6.9895803814402e-30
2.2043607997978e-30
6.9359597629277e-31
2.1680747369614e-31
6.7130151259843e-32
2.056091755442e-32
6.2285672902891e-33
1.867164994685e-33
5.5427976163387e-34
1.6303880978593e-34
4.7541301121211e-35
1.3747780287937e-35
3.9438983463154e-36
1.1227932296605e-36
3.1732456235667e-37
8.9059795584797e-38
2.4829616191468e-38
6.8785292352618e-39
1.8939850186874e-39
5.1846927632092e-40
1.4113610050061e-40
3.8213638677646e-41
1.0293296562671e-41
2.7588694990418e-42
7.3591957014018e-43
1.9539313578832e-43
5.1664183163177e-44
1.3566264691032e-44
3.6269593912151e-45
7.9519858274667e-46
4.1754668351605e-46
0
0
0
0
0
6.1771610513617e-56
1.447077330091e-53
1.4533073328271e-51
8.7372234473179e-50
3.6481030190007e-48
1.1481865088618e-46
2.8702818803802e-45
5.9104216038062e-44
1.0271736171695e-42
1.5329725679957e-41
1.9923899720455e-40
2.2782813498632e-39
2.310319919187e-38
2.0966324996268e-37
1.7154747296804e-36
1.2821502907046e-35
9.00077259022e-35
6.1269434613705e-34
4.0810097360989e-33
2.6206897230602e-32
1.595991389751e-31
9.1464857451644e-31
4.9198668874656e-30
2.4791518839149e-29
1.167371304388e-28
5.1217869624097e-28
2.0880903099332e-27
7.8918681828996e-27
2.7600538238255e-26
8.9205113154304e-26
2.6623036529167e-25
7.335903200447e-25
1.8675030767229e-24
4.3999390755137e-24
9.625639498831e-24
1.9652645727086e-23
3.7703946019946e-23
6.8498618450444e-23
1.1866147072175e-22
1.9679670575947e-22
3.1234945099816e-22
4.7203843418178e-22
6.7259350030026e-22
8.8737913456186e-22
1.0501393473289e-21
1.1007858292661e-21
1.0950029765457e-21
1.0639868954486e-21
9.8684581117333e-22
8.4582159213197e-22
6.5435051556184e-22
4.4489841441011e-22
2.5872721507236e-22
1.2550891434909e-22
5.0221067431553e-23
1.691010186534e-23
5.0816384239817e-24
1.4689266269582e-24
4.3009547183167e-25
1.2953486908172e-25
3.997142915754e-26
1.2556634302655e-26
3.9999782183831e-27
1.288338858921e-27
4.1791652213314e-28
1.3581072573824e-28
4.3959809329463e-29
1.4102734621143e-29
4.4697091248764e-30
1.3977325293287e-30
4.3134389122046e-31
1.3149081387043e-31
3.9638560202681e-32
1.1827384060639e-32
3.4954278690292e-33
1.0237027421928e-33
2.9723389040331e-34
8.5595872475059e-35
2.4457484870797e-35
6.9365325666565e-36
1.953445670052e-36
5.46428294508e-37
1.5186970653281e-37
4.1950608015077e-38
1.1519896692344e-38
3.1456348568509e-39
8.5431198619182e-40
2.3081573392718e-40
6.2050268888471e-41
1.6600239816112e-41
4.4218617107296e-42
1.169513051806e-42
3.1489694040305e-43
6.9488152737472e-44
3.6796993227745e-44
0
0
0
0
0
3.6518733745241e-54
6.124657977666e-52
4.9461544246811e-50
2.5673210396415e-48
9.6735183320551e-47
2.831121688979e-45
6.7217501452652e-44
1.3351138132072e-42
2.2649150079015e-41
3.3334111238483e-40
4.3093897184503e-39
4.9326776424473e-38
5.0396392723526e-37
4.6262646351382e-36
3.8327061239949e-35
2.878249007464e-34
1.9874442592983e-33
1.2933933010823e-32
8.3022112004589e-32
5.477343917217e-31
3.7006813522454e-30
2.4654237106603e-29
1.5616625487391e-28
9.1985727253716e-28
4.9807543671326e-27
2.4649300565755e-26
1.1117185324212e-25
4.5636407561737e-25
1.7045015753024e-24
5.7918330983409e-24
1.7896539161857e-23
5.0220387049139e-23
1.2766821874655e-22
2.930446259862e-22
6.0518334597957e-22
1.1228528015371e-21
1.8807354190704e-21
2.8858507517653e-21
4.156019836166e-21
5.775922484679e-21
7.9234085749478e-21
1.0833910858451e-20
1.4664791106689e-20
1.9186522636195e-20
2.3265023281382e-20
2.5123084511468e-20
2.5141506396592e-20
2.4649200944049e-20
2.3169937859293e-20
2.0251804734222e-20
1.6031735536255e-20
1.1200193177239e-20
6.7277127786771e-21
3.3924305972057e-21
1.4194084914309e-21
5.0080625481254e-22
1.5698786987238e-22
4.6912579094542e-23
1.4095028460055e-23
4.3451567460307e-24
1.374039228648e-24
4.4348268235715e-25
1.4551166845566e-25
4.8354337897636e-26
1.6191950047703e-26
5.4283933568218e-27
1.8096336157376e-27
5.9646581932672e-28
1.9369094266036e-28
6.1889799326505e-29
1.9468799760915e-29
6.0378534063546e-30
1.8489323485807e-30
5.5976731435291e-31
1.6770363759952e-31
4.9752559108169e-32
1.4623741488383e-32
4.2606979704632e-33
1.2310648629628e-33
3.528971439873e-34
1.0040584159016e-34
2.8364549776129e-35
7.9587969985626e-36
2.2187564834927e-36
6.1473476901388e-37
1.6931587908004e-37
4.6371051160538e-38
1.2630929701026e-38
3.4226161292945e-39
9.2275104892117e-40
2.4765570590235e-40
6.5983836325018e-41
1.7895614135406e-41
3.974751649331e-42
2.1234771387494e-42
0
0
0
0
2.4749664335177e-65
1.0423996877146e-52
1.5265403737373e-50
1.1036209092637e-48
5.2414101430052e-47
1.8389896387565e-45
5.0838138149398e-44
1.153647165322e-42
2.2117962090862e-41
3.6534144203755e-40
5.2784935984165e-39
6.7486780403676e-38
7.6873958062871e-37
7.8676349324053e-36
7.2636383041827e-35
6.0742352284454e-34
4.6316594377647e-33
3.204901017199e-32
2.0334817599095e-31
1.2527838037903e-30
8.1963992014331e-30
5.978449623992e-29
4.7064984766119e-28
3.6927493661727e-27
2.7040289167795e-26
1.7882531435354e-25
1.0546860241167e-24
5.5245038777258e-24
2.5677655969489e-23
1.0595416871544e-22
3.8848692880535e-22
1.2668514305888e-21
3.6744051303353e-21
9.4800009546454e-21
2.1662245540637e-20
4.3795630871425e-20
7.7903638363727e-20
1.1960601983723e-19
1.5656645016153e-19
1.8065048409356e-19
1.9648338574062e-19
2.1219174895526e-19
2.3430434560604e-19
2.6804043483751e-19
3.1610514723212e-19
3.7184766321988e-19
4.1051525745321e-19
4.1625437032513e-19
4.1092016400456e-19
3.9150980879098e-19
3.4935893192087e-19
2.8336129637496e-19
2.0360294045098e-19
1.2630096104657e-19
6.6108182025726e-20
2.8858459514309e-20
1.0649584943125e-20
3.4818494108026e-21
1.0775316386616e-21
3.3305833284422e-22
1.0533211967214e-22
3.4193943982027e-23
1.1355417754298e-23
3.8425727592059e-24
1.3190538174518e-24
4.5651914470793e-25
1.5808425548646e-25
5.4343165848648e-26
1.8426020313373e-26
6.1380315051688e-27
2.00621188244e-27
6.4388480385355e-28
2.0329279920147e-28
6.3269600764228e-29
1.9442853835288e-29
5.9067660978917e-30
1.7755786306903e-30
5.2846264200081e-31
1.5581677596504e-31
4.5536768557518e-32
1.3196787853388e-32
3.7942720345552e-33
1.0827378079751e-33
3.0677297986327e-34
8.6329550322665e-35
2.4137217758149e-35
6.7069656161042e-36
1.8526456131499e-36
5.0885437966292e-37
1.3900545497076e-37
3.7773074441033e-38
1.0216108985894e-38
2.7423786401845e-39
7.4929039305489e-40
1.675116634756e-40
9.0321482434342e-41
0
0
0
0
1.066137699985e-65
1.9168515816159e-51
2.6171230897851e-49
1.7767153130364e-47
7.9828130068379e-46
2.668053980763e-44
7.0703460892414e-43
1.5468737202717e-41
2.874230636159e-40
4.6253877276847e-39
6.5461285694993e-38
8.2428575011633e-37
9.2982716121394e-36
9.4792327792735e-35
8.7562036921186e-34
7.3513217179173e-33
5.6698561688884e-32
3.9749620454674e-31
2.5189674773633e-30
1.4953467715894e-29
9.324743671572e-29
6.9348936050198e-28
6.0020287212587e-27
5.369601921474e-26
4.5143422648719e-25
3.3643500748782e-24
2.1735844458479e-23
1.2175056276839e-22
5.9588117126561e-22
2.5667680434141e-21
9.7767419268818e-21
3.3017449725801e-20
9.8961175112763e-20
2.6319796540026e-19
6.1988631531348e-19
1.2885812532367e-18
2.3463448509439e-18
3.6682386394243e-18
4.7746471673403e-18
5.1804981870927e-18
5.1638590729191e-18
5.0007074395257e-18
4.6545271661667e-18
4.5572689326053e-18
4.6589687117859e-18
4.9276019111392e-18
5.2544332884518e-18
5.3602884543826e-18
5.3165036464362e-18
5.1190450915936e-18
4.6458152012627e-18
3.8505437194721e-18
2.8388912022677e-18
1.8148733709061e-18
9.842115003076e-19
4.4764566215363e-19
1.7271833154966e-19
5.896105407533e-20
1.8939099577383e-20
6.0377726250772e-21
1.963341797424e-21
6.5551151939568e-22
2.2433167726543e-22
7.839904805193e-23
2.7835933332491e-23
9.9692426674217e-24
3.5701686087804e-24
1.2672641857005e-24
4.4267414308374e-25
1.5150225260514e-25
5.0726870421697e-26
1.6631389617937e-26
5.3511155745878e-27
1.693830215157e-27
5.2862008589697e-28
1.6291629441219e-28
4.9638724077561e-29
1.4964523558547e-29
4.4665360817883e-30
1.3206614221712e-30
3.8703908493404e-31
1.1248018820731e-31
3.2430502238242e-32
9.280440199491e-33
2.6368453016319e-33
7.4413352203779e-34
2.0864281874036e-34
5.8139017829546e-35
1.6104939886536e-35
4.4359549366785e-36
1.2151586365729e-36
3.3124103556861e-37
8.9599110204209e-38
2.4666626231028e-38
5.5506589914564e-39
3.0218777244239e-39
0
0
0
0
-2.1084395886461e-82
2.5579479447399e-50
3.3545395646476e-48
2.1921679405763e-46
9.5056203914101e-45
3.0741936648091e-43
7.9031080501662e-42
1.6815135714833e-40
3.0454553183132e-39
4.7894277835119e-38
6.643205074839e-37
8.2250865623786e-36
9.1593672378679e-35
9.2578122610656e-34
8.5177368426785e-33
7.1471950277456e-32
5.5317948448827e-31
3.9246184992787e-30
2.5243611850306e-29
1.4753437786363e-28
8.5820893763022e-28
6.0350631436716e-27
5.365008277466e-26
5.1581936982428e-25
4.6396971897299e-24
3.7153184111471e-23
2.5996170783144e-22
1.5736820675752e-21
8.220565739891e-21
3.7375610224128e-20
1.4971733043046e-19
5.3251249076911e-19
1.6853107880984e-18
4.7380526275381e-18
1.1788472589247e-17
2.5819594105568e-17
4.9374363370515e-17
8.0790826756682e-17
1.0831725820695e-16
1.1728916627925e-16
1.1597364121072e-16
1.0979758689574e-16
9.65866984152e-17
7.8221309776296e-17
6.3092898771944e-17
5.7544554290762e-17
5.7286767557824e-17
5.7100120966164e-17
5.6280939279234e-17
5.3979291374098e-17
4.9184726766702e-17
4.1388317707717e-17
3.1260161096679e-17
2.0628388448299e-17
1.1623555794158e-17
5.5227093169291e-18
2.2315064413027e-18
7.9595571764609e-19
2.6552702087011e-19
8.7391938367686e-20
2.9258775613361e-20
1.0062210235264e-20
3.5538446672517e-21
1.2843872975264e-21
4.7223849322029e-22
1.7521592378962e-22
6.4973199431021e-23
2.3848787024727e-23
8.5971659063488e-24
3.0286152673283e-24
1.0407594992723e-24
3.491661099459e-25
1.1464144906661e-25
3.6945283260416e-26
1.1718009290064e-26
3.6654939869733e-27
1.1324890053074e-27
3.4594043366143e-28
1.0455957784539e-28
3.1289321301995e-29
9.275727133246e-30
2.7255413555759e-30
7.9419530927433e-31
2.2959880626004e-31
6.5880806311379e-32
1.8769695690846e-32
5.311436105327e-33
1.4933376896071e-33
4.172720956723e-34
1.159078549071e-34
3.2012999295436e-35
8.7965968609577e-36
2.3980436927593e-36
6.6529792108414e-37
1.5069429674525e-37
8.2869785115752e-38
0
0
0
0
0
2.646124053127e-49
3.3866795352579e-47
2.1607519399283e-45
9.1540877930395e-44
2.8949471953799e-42
7.2840027812159e-41
1.5181522767129e-39
2.6955716177399e-38
4.1599855758879e-37
5.6687878934721e-36
6.9053276908269e-35
7.5832128270022e-34
7.5776573146034e-33
6.9187226429941e-32
5.782540505948e-31
4.4649997698087e-30
3.1822675390287e-29
2.0798477749128e-28
1.227610542911e-27
6.7771591932557e-27
4.2256778761815e-26
3.5421625848114e-25
3.4809524052733e-24
3.2754762383598e-23
2.7469096439456e-22
2.0300383159333e-21
1.3133186148451e-20
7.5059868220346e-20
3.7699254900516e-19
1.6423996614836e-18
6.2335713083678e-18
2.0842015210336e-17
6.1788991144138e-17
1.6245783448736e-16
3.7721961410227e-16
7.6750765503469e-16
1.3440778506632e-15
1.9405344561882e-15
2.2126876130594e-15
2.2022050709741e-15
2.0931378923307e-15
1.821721938491e-15
1.3860030335902e-15
9.423512182215e-16
6.5580072073235e-16
5.4215854661427e-16
5.0658008019344e-16
4.8667902521405e-16
4.6224100455591e-16
4.2270294823814e-16
3.6148478679862e-16
2.8033760033524e-16
1.9150443077083e-16
1.1241377643959e-16
5.5874058148865e-17
2.3639468109092e-17
8.8020860811078e-18
3.0481342303731e-18
1.0363815740511e-18
3.5774606581686e-19
1.2692303412293e-19
4.6327807239982e-20
1.7334854769823e-20
6.6069662168274e-21
2.5422969299504e-21
9.773756090769e-22
3.7156171133188e-22
1.3849633044586e-22
5.0332929863182e-23
1.7793186578655e-23
6.1215731401137e-24
2.0546845086105e-24
6.7505736787514e-25
2.1780529772521e-25
6.9197503737252e-26
2.168942450749e-26
6.7160546442348e-27
2.0563095004391e-27
6.2298898744627e-28
1.8687878649523e-28
5.5536473053805e-29
1.6359493492241e-29
4.7791485466203e-30
1.3852110087931e-30
3.9851290437387e-31
1.1383854724997e-31
3.2299965367179e-32
9.1057016326833e-33
2.5512225865794e-33
7.1056124257653e-34
1.9685010671747e-34
5.409103270062e-35
1.5125375313407e-35
3.4485468164269e-36
1.9163906057958e-36
0
0
0
0
-1.6472184286297e-84
2.2132675257777e-48
2.7905937319702e-46
1.7534216776025e-44
7.315015231656e-43
2.2781671049781e-41
5.6457920949867e-40
1.1591686535624e-38
2.0276567613834e-37
3.0833374093212e-36
4.1407314914415e-35
4.9721965448363e-34
5.3879098307283e-33
5.3177824676207e-32
4.8068870732841e-31
3.9905347297079e-30
3.0635278119376e-29
2.1795766375729e-28
1.4353443562591e-27
8.6368238474041e-27
4.7166618324561e-26
2.6051362703037e-25
1.8593380737471e-24
1.7191117121687e-23
1.6586197575529e-22
1.4511672684673e-21
1.120245065743e-20
7.739309008228e-20
4.7536492746615e-19
2.5747754861818e-18
1.2603459838545e-17
5.4574114727503e-17
2.0530447168528e-16
6.7485890677026e-16
1.9499796174436e-15
4.9262739701e-15
1.0740006401169e-14
1.9730108885159e-14
2.9114468996523e-14
3.3077618072946e-14
3.2779508648645e-14
3.0781532924256e-14
2.6099333105342e-14
1.8877836412108e-14
1.1639805208383e-14
6.7517103909829e-15
4.5528507674215e-15
3.8084927587209e-15
3.5113828454882e-15
3.2874331724563e-15
3.010560587404e-15
2.6149935982957e-15
2.0851777912804e-15
1.4780706375539e-15
9.0579175773724e-16
4.7147213848506e-16
2.0886763617518e-16
8.1164901704763e-17
2.9184984200641e-17
1.0260055524556e-17
3.655751695135e-18
1.3395998576474e-18
5.0587773996448e-19
1.9617697770784e-19
7.7585081397124e-20
3.0994045386311e-20
1.2369463973752e-20
4.8785081589318e-21
1.8842671900225e-21
7.0824918574997e-22
2.5826901778984e-22
9.1360023643881e-23
3.141934306762e-23
1.0542179739153e-23
3.4643743564812e-24
1.1187872678955e-24
3.5596497411938e-25
1.1177913763172e-25
3.4682463782522e-26
1.064174869741e-26
3.2311973798538e-27
9.7146893166984e-28
2.893749507304e-28
8.5446337931802e-29
2.5023009516308e-29
7.2709480526932e-30
2.0971072006606e-30
6.005992151193e-31
1.7085431345886e-31
4.829226919101e-32
1.356568430379e-32
3.7895653464215e-33
1.0497589855734e-33
2.9591022104818e-34
6.7911092069003e-35
3.8152105407371e-35
0
0
0
2.3153164724978e-76
6.3033746684948e-62
1.5407329905573e-47
1.9252240931078e-45
1.1981245259274e-43
4.9483258179435e-42
1.5251500144364e-40
3.739768624174e-39
7.595867883983e-38
1.3141008890014e-36
1.9759092569757e-35
2.6230412891034e-34
3.1125436431518e-33
3.3332197043156e-32
3.2509765508092e-31
2.9065606445616e-30
2.3918722774793e-29
1.8216710111412e-28
1.2886504102684e-27
8.4812933007505e-27
5.165121200712e-26
2.8676158587648e-25
1.4893967319297e-24
8.7358596194469e-24
6.730809929171e-23
6.1829543789386e-22
5.535966039363e-21
4.4839329981988e-20
3.3131979135055e-19
2.1547463798549e-18
1.2630826088294e-17
6.6462934408937e-17
3.2388971437212e-16
1.4669663598812e-15
5.8551522534515e-15
1.9716772305922e-14
5.5605950804715e-14
1.3136129279383e-13
2.533801475045e-13
3.7620379704744e-13
4.1621906999812e-13
4.0745590914528e-13
3.704677609202e-13
2.9483928112542e-13
1.940442579344e-13
1.056948072319e-13
5.2491288412395e-14
3.0298228885708e-14
2.319945645613e-14
2.0772810079383e-14
1.9347390010314e-14
1.7844558419977e-14
1.5777566891766e-14
1.293146542253e-14
9.4964868689813e-15
6.066797864773e-15
3.3076952983106e-15
1.5388440532654e-15
6.2727025058307e-16
2.3543924225618e-16
8.5891109551771e-17
3.1646336218272e-17
1.1987272947874e-17
4.6865493846445e-18
1.8850650545753e-18
7.7431319367266e-19
3.2149735182029e-19
1.3337919564308e-19
5.4672537294103e-20
2.1931687978131e-20
8.5497984768053e-21
3.2260442614809e-21
1.1769883870057e-21
4.1588266429792e-22
1.4282178508734e-22
4.7877859352366e-23
1.5732788510638e-23
5.0846188026201e-24
1.6199599115751e-24
5.0956002885298e-25
1.5840229341456e-25
4.8699718299171e-26
1.4817476278897e-26
4.4644930008702e-27
1.3328208629567e-27
3.9446132792569e-28
1.1579204863672e-28
3.372732044917e-29
9.7517459302123e-30
2.7998401967695e-30
7.9850367208504e-31
2.2626797246301e-31
6.3745847141939e-32
1.7804338572797e-32
5.0600294799528e-33
1.1689207125673e-33
6.6416342564126e-34
0
0
0
7.3876813689244e-74
2.589579349924e-60
9.1136219158519e-47
1.1332101527179e-44
7.0128778586151e-43
2.8783611577121e-41
8.8117297693626e-40
2.145242482965e-38
4.3244309946576e-37
7.4219609956527e-36
1.1066896220551e-34
1.4561905990844e-33
1.7117209786789e-32
1.8151382568084e-31
1.7518517279639e-30
1.5496362046933e-29
1.2628370210536e-28
9.5285933884347e-28
6.6850689450577e-27
4.3745382797268e-26
2.6686392317486e-25
1.5051372762258e-24
7.7843580547326e-24
4.0113753717597e-23
2.4239467225137e-22
1.8519782876661e-21
1.5658398789663e-20
1.2880033505692e-19
1.004357113554e-18
6.9970825407144e-18
4.4501946880571e-17
2.5023911818585e-16
1.3374235412252e-15
6.7421338631032e-15
3.0727785931561e-14
1.268402750998e-13
4.4889644905059e-13
1.2130882471047e-12
2.5046544297311e-12
3.739706167153e-12
4.0223420903701e-12
3.8780358634353e-12
3.3759751994329e-12
2.4659018778583e-12
1.4412778961907e-12
6.8956083118294e-13
3.0558839982075e-13
1.6009869625158e-13
1.1538526503427e-13
1.0157393949534e-13
9.4717911019174e-14
8.8108706192369e-14
7.9083647607391e-14
6.629798666234e-14
5.0223979896989e-14
3.340807468982e-14
1.9140292037312e-14
9.4188412407671e-15
4.0642661239019e-15
1.6056430652861e-15
6.1136589863014e-16
2.3369882974894e-16
9.1677791217881e-17
3.7155453059511e-17
1.5518340830034e-17
6.6275767790375e-18
2.8633541466809e-18
1.2366300800222e-18
5.2780771311809e-19
2.2043408546944e-19
8.9391601252113e-20
3.5019291855045e-20
1.3223333896189e-20
4.8161363334908e-21
1.6973347104807e-21
5.8156728885035e-22
1.947062235458e-22
6.3970191020448e-23
2.0689329271703e-23
6.6001410949149e-24
2.0793842920615e-24
6.4752720350039e-25
1.9944580504298e-25
6.0801841348135e-26
1.8357001477731e-26
5.4919895819669e-27
1.6290226844428e-27
4.7928836541311e-28
1.3993323580042e-28
4.0556753141877e-29
1.1672824265537e-29
3.3371602871885e-30
9.4832286559503e-31
2.6709680939598e-31
7.6545845079884e-32
1.779941566115e-32
1.0232778559247e-32
0
0
0
-9.5880731744094e-92
4.3064229436957e-59
4.650198429886e-46
5.7712882542961e-44
3.5622656480637e-42
1.457310627563e-40
4.4439791746265e-39
1.0771018174434e-37
2.1605410707717e-36
3.6879182957555e-35
5.4664982984662e-34
7.1462241875788e-33
8.3404188870531e-32
8.7759204671307e-31
8.3969217019258e-30
7.3579836308578e-29
5.938979948611e-28
4.4377343798963e-27
3.0835320199331e-26
2.0001343493176e-25
1.2136740587437e-24
6.8750458653174e-24
3.5998369631953e-23
1.7783310140434e-22
9.0131212848197e-22
5.310094259583e-21
3.7050018695575e-20
2.7985743087889e-19
2.1356279861341e-18
1.5421074318188e-17
1.0583312722486e-16
6.5055060993718e-16
3.7437257341892e-15
2.0077849209102e-14
1.0021839831175e-13
4.5325316213339e-13
1.7343664699023e-12
7.2840558853916e-12
1.9542470721636e-11
2.7182837193676e-11
2.7080630999631e-11
2.4782613577195e-11
1.9837957684504e-11
1.3057483646246e-11
7.0523402842784e-12
3.3272283047479e-12
1.5627758524746e-12
8.3325699796244e-13
5.4959051728453e-13
4.4455962896412e-13
3.9939225934768e-13
3.6715317447873e-13
3.3059961685174e-13
2.818137278562e-13
2.1996797343991e-13
1.526257977285e-13
9.2204386506056e-14
4.8209325529476e-14
2.2141888569482e-14
9.2642858290953e-15
3.7039119218416e-15
1.4761291833921e-15
6.0183404901182e-16
2.534746163712e-16
1.1012714465489e-16
4.8973502067668e-17
2.204651926023e-17
9.9270635314184e-18
4.4200767191769e-18
1.9265395665174e-18
8.1513340761111e-19
3.3269952008299e-19
1.3051029200433e-19