/*--------------------------------*- C++ -*----------------------------------*\
  =========                 |
  \\      /  F ield         | OpenFOAM: The Open Source CFD Toolbox
   \\    /   O peration     | Website:  https://openfoam.org
    \\  /    A nd           | Version:  7
     \\/     M anipulation  |
\*---------------------------------------------------------------------------*/
FoamFile
{
    version     2.0;
    format      ascii;
    class       surfaceScalarField;
    location    "2.6";
    object      alphaPhi0.water;
}
// * * * * * * * * * * * * * * * * * * * * * * * * * * * * * * * * * * * * * //

dimensions      [0 3 -1 0 0 0 0];

internalField   nonuniform List<scalar> 
11840
(
0
0
0
0
0
0
0
0
0
0
0
0
0
0
0
0
0
0
0
0
0
0
0
0
0
0
0
0
0
0
0
0
0
0
0
0
0
0
0
0
0
0
0
0
0
0
0
0
0
0
0
0
0
0
0
0
0
0
0
0
0
0
0
0
0
0
0
0
0
0
0
0
0
0
0
0
0
0
0
0
0
0
0
0
0
0
0
0
0
0
0
0
0
0
0
0
0
0
0
0
0
0
0
0
0
0
0
0
0
0
0
0
0
0
0
0
0
0
0
0
0
0
0
0
0
0
0
0
0
0
0
0
0
0
0
0
0
0
0
0
0
0
0
0
0
0
0
0
0
0
0
0
0
0
0
0
0
0
0
0
0
0
0
0
0
0
0
0
0
0
0
0
0
0
0
0
0
0
0
0
0
0
0
0
0
0
0
0
0
0
0
0
0
0
0
0
0
0
0
0
0
0
0
0
0
0
0
0
0
0
0
0
0
0
0
0
0
0
0
0
0
0
0
0
0
0
0
0
0
0
0
0
0
0
0
0
0
1.5272363510885e-207
-8.9647105008289e-227
2.4973694187572e-207
1.2486847093786e-207
4.0714717017531e-207
2.0357358070748e-207
9.1008867396474e-208
3.2585751442268e-207
1.6547066799359e-208
7.4461800597115e-208
3.9602132468763e-188
0
1.0441026984891e-187
0
1.8983685427075e-188
8.5426584421839e-188
3.4515791685591e-189
1.5532106258516e-188
6.2755984882891e-190
2.8240193197301e-189
3.9297453010938e-189
0
1.4119288349979e-188
-1.9094696999455e-198
2.5671433363599e-189
1.155214501362e-188
2.873105740019e-189
1.4365528700095e-189
4.9551747050085e-189
1.2205402392542e-189
1.0041346126466e-188
0
1.6015593380226e-188
0
2.9119260691319e-189
1.3103667311094e-188
5.2944110347852e-190
2.3824849656534e-189
7.5769296486083e-190
0
8.4917310366328e-190
0
1.5439510975696e-190
6.9477799390632e-190
1.593368303728e-190
0
2.8970332795055e-191
1.3036649757775e-190
1.9088185129537e-191
9.5440925647687e-192
3.4705791144613e-192
1.5617606015076e-191
3.0329126637996e-192
1.9015707044606e-193
2.5605267756675e-192
0
4.6555032284863e-193
2.0949764528189e-192
3.6581123354435e-193
0
6.6511133371699e-194
2.9930010017265e-193
4.9085956561466e-194
0
3.4271960770306e-194
0
6.2312655946012e-195
2.8040695175705e-194
4.1398781035536e-195
0
7.5270510973708e-196
3.3871729938165e-195
1.3685547449775e-196
6.1584963523934e-196
8.6921138393736e-197
0
1.5803843344498e-197
7.1117295049322e-197
9.6323932617173e-198
0
1.751344229956e-198
7.8810490320838e-198
1.0276292043242e-198
0
1.8684167885083e-199
8.4078752002678e-199
8.6281279937937e-200
4.3140639968968e-200
1.568750673166e-200
7.0593773613551e-200
7.1183059333616e-201
3.5591529666808e-201
3.1767131706875e-201
1.5883565853437e-201
5.7761685776142e-202
1.2993900909719e-201
2.560100996529e-202
1.2800504982645e-202
1.3510164800967e-202
0
5.77991984737e-203
2.889959923685e-203
2.8717903717146e-203
0
5.3039022105061e-204
2.3332144805236e-203
2.5869300748492e-204
0
5.7981699788708e-205
1.9584583852853e-204
2.4948939289227e-205
1.2474469644614e-205
8.7439993235814e-206
1.254646646238e-205
4.5565011885332e-206
0
2.111248410026e-206
0
8.9867840381624e-207
4.4976040804982e-207
4.2798412480874e-207
0
1.6812070398693e-207
8.4104677772847e-208
7.4607197308625e-208
0
2.8151286982475e-208
1.4075643491238e-208
1.1977928102948e-208
0
4.9674866686411e-209
0
1.7761877921138e-209
8.8809565771737e-210
7.0624565378396e-210
0
2.4496628157227e-210
1.2248314078614e-210
9.4107657952901e-211
0
3.1835023962892e-211
1.5917512113086e-211
1.0662125281901e-211
5.3310626409503e-212
3.9322589261888e-212
0
1.2901972909819e-212
6.4509864549097e-213
4.6478295020942e-213
0
1.4980076371568e-213
7.4900381858305e-214
5.2805814076696e-214
0
1.8392900312861e-214
0
5.7699656970891e-215
2.8849828485446e-215
1.9635785850194e-215
0
4.3453244082002e-216
0
0
0
0
0
0
0
0
0
0
0
0
0
0
0
0
0
0
0
0
0
0
0
0
0
0
0
0
0
0
0
0
0
0
0
0
0
0
1.9392977616343e-150
9.6964888081716e-151
1.0636169223226e-146
5.318084611613e-147
9.6692448010133e-147
9.6692448945877e-148
0
1.7984557385071e-139
1.3942308117254e-121
0
1.4092081294661e-122
3.0394380790207e-121
2.484628431441e-122
0
2.5293575501029e-122
1.2236542305578e-122
1.7228490010253e-123
2.451970195812e-122
1.3249340603994e-123
3.9791494141805e-124
6.9813379626403e-123
0
1.4596554404475e-122
5.0611315873962e-123
2.9198338025302e-121
1.4598899294208e-121
1.9587037289799e-122
2.569352909099e-121
1.4772250904894e-122
4.8147863849053e-123
8.3595661584394e-122
0
2.542428086704e-121
0
5.2488817749687e-121
0
4.6014248473166e-122
6.4447519335578e-121
9.969602798868e-122
0
1.0803064843912e-121
0
1.0803064843912e-121
0
3.1036303946476e-122
0
3.103090575844e-122
0
6.2494679800992e-124
3.040595896043e-122
5.2317718480542e-124
0
5.2317718480542e-124
0
1.5858038104131e-124
0
8.7776051835757e-125
0
4.9176543732825e-125
0
2.5030910623356e-125
0
1.6971874107423e-125
0
3.742532214058e-126
0
1.5034114657285e-126
0
9.698279498744e-127
0
5.4192335261016e-127
0
7.1534363884519e-128
4.7038898872565e-127
4.2083961698348e-128
0
1.3102151463667e-129
4.0773746551981e-128
1.3097283321529e-129
0
3.1337389551025e-131
1.2783909426019e-129
3.1321292034459e-131
0
1.8268930574718e-131
0
6.7843864014709e-133
1.7590491934571e-131
6.1426689034846e-133
0
1.1168488915426e-133
5.025820011942e-133
1.4627891286785e-134
9.7056997867479e-134
8.4564762685012e-135
0
2.632811908115e-136
8.1931950776897e-135
2.6317917738081e-136
0
4.8917623918152e-138
2.58287414989e-136
3.3089875224107e-138
0
2.3710492785994e-138
0
3.1705850220795e-139
0
3.1692854219663e-139
0
5.7623371308478e-140
2.5930517088815e-139
1.9232179323707e-141
5.5700153376107e-140
5.0239801600719e-142
0
5.0218902007226e-142
0
1.9935751601301e-143
4.8225326847096e-142
1.7876832315628e-143
0
2.3098650657077e-144
1.556696724992e-143
1.2939663561243e-144
0
3.0052026577605e-146
1.2639143295467e-144
3.0035337713619e-146
0
1.5209734625458e-146
0
5.3200813913398e-147
0
2.8908694103706e-147
0
6.7367879190487e-149
2.8235015311801e-147
6.7324967783568e-149
0
3.4737774790254e-149
0
4.4070301632083e-150
3.0330744627046e-149
2.3604981186113e-150
0
6.7260051335214e-152
2.2932380672761e-150
4.0989818819706e-152
0
1.5615923804167e-152
0
4.920315757081e-153
0
2.8776487626071e-153
0
1.1519798983502e-154
2.7624507727721e-153
9.4619904127452e-155
0
0
0
0
0
0
0
0
0
0
0
0
0
0
0
0
0
0
0
0
0
0
0
0
0
0
0
0
0
0
0
0
0
0
0
0
-2.0117049126887e-88
-1.0058524563443e-88
-2.7479049742474e-87
-1.3739524871237e-87
-2.9352049305957e-86
-1.4676024652979e-86
-2.0613318059099e-85
-1.030665902955e-85
-9.5984001343705e-85
-4.7992000671852e-85
-3.8383935349454e-84
-1.9191967674727e-84
1.7377166622448e-71
0
8.753642654705e-73
1.6455712021948e-71
6.0027751633216e-73
3.040303518919e-73
1.0635978791869e-73
4.9211653665688e-73
1.7431108685484e-74
8.8938800486767e-74
1.8122055700058e-75
1.560878186503e-74
3.1989017382888e-73
2.9430957006187e-73
5.6668855963369e-74
2.6016969920722e-73
1.0303608712868e-74
4.6365247250501e-74
1.8733988643487e-75
8.4302098402319e-75
1.7030904366585e-76
1.70308982897e-75
7.9667991328609e-68
6.3798345791824e-68
5.0908047560901e-62
1.2446030555722e-62
1.806835262201e-61
1.9913648889156e-61
2.0874858506918e-62
1.5974440645453e-61
6.066381848217e-63
1.7446972546351e-62
5.6438636528998e-63
4.6672610119669e-63
1.1181301427164e-62
1.244309571679e-62
8.4521504395334e-62
4.9711196262602e-62
4.6417907911575e-61
3.2601550546496e-61
1.6446588985025e-60
1.1630140911758e-60
7.397092978614e-60
4.6102903308575e-60
2.7280457475453e-59
1.9412520622485e-59
1.0524772551015e-58
7.7388427326176e-59
2.839430461068e-58
2.1208955522776e-58
8.6474057890268e-58
5.7911141542663e-58
2.4560016512534e-57
1.6612762740993e-57
6.7121455864939e-57
5.1462387593311e-57
1.5350453227266e-56
1.2297144228084e-56
2.9898035117608e-56
2.4066943810669e-56
6.9696860795219e-56
5.0902870628544e-56
1.3856264378145e-55
1.1389536771669e-55
2.6017384881357e-55
2.1263013339178e-55
5.4783698966658e-55
4.2934961962679e-55
8.1261207407326e-55
7.1686269539731e-55
1.0933715088557e-54
1.0263036637797e-54
1.1162369758565e-54
1.1732356951523e-54
1.0976626540277e-54
1.1662219308534e-54
1.1264176034478e-54
1.1263043311199e-54
1.0312840183919e-54
1.1278108735257e-54
9.4509959486389e-55
9.9324490072179e-55
7.327200770891e-55
8.7364542802358e-55
4.9643260864083e-55
6.3772238646304e-55
2.8247970962385e-55
3.8787897524733e-55
9.9622183315072e-56
1.8960302640022e-55
2.2745942587452e-56
5.5996874101763e-56
3.3896715952105e-57
1.4002571434385e-56
5.4901710409844e-58
2.6978380290813e-57
1.3050140612933e-58
3.6917966783081e-58
2.3276540327817e-59
1.0435047193888e-58
5.9984823846059e-60
1.5447468927846e-59
1.1151029172989e-60
4.7241476637422e-60
1.8208954776259e-61
9.0757615121237e-61
4.7258058179489e-62
1.2005461788382e-61
8.8899269778453e-63
3.7100189121981e-62
1.7074586518815e-63
7.0337024832049e-63
3.2718142080152e-64
1.3441093859495e-63
6.1026390636406e-65
2.5872145269062e-64
1.001099289225e-65
4.9631113924998e-65
2.5872669201249e-66
6.5913700018433e-66
6.0706901218449e-67
1.6707760725503e-66
1.0001467958686e-67
4.837133797529e-67
2.5330933425974e-68
6.5842953993639e-68
4.7523310435349e-69
1.9864762994656e-68
7.7471219585935e-70
3.8642983298604e-69
1.9941569801692e-70
5.1097732245539e-70
4.7133289809987e-71
1.2893775972382e-70
7.3453464651884e-72
3.8004497884187e-71
1.4786621492415e-72
5.6936588944077e-72
3.803265295812e-73
9.8019980896436e-73
9.254441272113e-74
2.4358697719144e-73
1.9704953858367e-74
6.8409029172681e-74
4.8685709052131e-75
1.3039726612113e-74
9.4974379958892e-76
2.7835874855345e-75
2.1972104731862e-76
6.0198210503086e-76
6.4629873752093e-77
1.3311696596105e-76
5.2583429121039e-77
0
0
0
0
0
0
0
0
0
0
0
0
0
0
0
0
0
0
6.4070310839708e-67
3.215881732646e-67
5.5090890174388e-65
2.8439225398551e-65
1.3526344355742e-63
7.0760970841402e-64
2.6333819037826e-62
1.3934935578257e-62
4.0448848319898e-61
2.1950714046518e-61
5.009294937783e-60
2.6860089693068e-60
1.2567880127865e-58
6.7557053856461e-59
1.1559300663871e-57
6.4978236325315e-58
9.7243760980598e-57
5.4818292662068e-57
7.1930273512243e-56
4.1050792366061e-56
5.6929090821984e-55
3.5338602009505e-55
1.0578174449631e-54
1.0725969219273e-54
3.4302897875807e-55
7.1125818701184e-55
1.9579466830153e-53
1.7957637895932e-53
5.6505419310665e-54
1.4616682008317e-53
1.0721331373974e-54
4.578408795023e-54
1.9531880556187e-55
8.7681433183568e-55
3.5514082746918e-56
1.5980472281495e-55
6.4571123324776e-57
2.905697041444e-56
1.1740204213642e-57
5.2830919111134e-57
2.1354291328042e-58
9.6047750808378e-58
2.986696782566e-53
0
5.4303822617737e-54
2.4436585563887e-53
9.8736295805188e-55
4.4430193037219e-54
1.1136580075402e-52
0
7.2010547296252e-53
3.9355253457768e-53
5.9247298043665e-46
2.2420775429197e-46
2.2164469247778e-45
1.1770907100328e-45
6.9838711774315e-47
2.1466245249924e-45
8.7515634590295e-47
0
1.5895736295577e-47
7.1619898294718e-47
1.9822107693532e-48
1.60758400231e-47
5.9843865948509e-49
0
1.0880972613002e-49
4.8962893128578e-49
2.9027080329377e-51
1.0590701810008e-49
3.1512214060015e-51
0
1.6422627985809e-51
1.968824152812e-51
1.6424014287171e-51
3.8339803439441e-51
2.986186838367e-52
1.3437833840985e-51
1.3586949577049e-51
0
2.2467470390306e-49
0
2.2442223660702e-49
0
6.3651151106023e-50
1.4394705934653e-49
6.3651208836294e-50
8.0883911539748e-57
1.8611461741394e-48
0
1.8612912461645e-48
0
3.3841703678375e-49
1.5228747831783e-48
3.971033275607e-49
0
7.2201372562531e-50
3.2490371925842e-49
8.340473361571e-50
0
4.7060604413456e-51
7.8701130365912e-50
4.7084577694328e-51
0
5.1741680053219e-51
0
9.4183401627006e-52
4.2345648627988e-51
1.0214497174412e-51
0
1.864607860135e-52
8.3646770281812e-52
3.4479744862404e-53
1.530511850999e-52
3.7700074681959e-53
0
7.0037684042937e-54
3.0904171854814e-53
7.3073871974093e-54
0
9.738767264506e-55
6.3445494419147e-54
9.7594429209391e-55
0
4.845105396641e-55
0
4.8456105545506e-55
0
4.1080172786755e-55
0
7.0296186904051e-56
3.405092859319e-55
1.2784310112284e-56
5.7512601103851e-56
4.6135727578577e-57
0
4.6130080704781e-57
0
1.5257118523905e-58
4.4604425542426e-57
1.525522588621e-58
0
9.5750727417144e-60
1.429773917922e-58
9.5751122319587e-60
0
4.8666627139531e-60
0
3.244389743183e-60
0
3.2443901182854e-60
0
7.206148006927e-61
0
7.1885601640478e-61
0
1.4146393011663e-62
7.0470962643861e-61
1.0961682429756e-62
0
8.4510801451473e-63
0
3.5920627786258e-64
8.0918738967308e-63
3.4336257530955e-64
0
1.372023836353e-64
0
6.6525656384893e-65
0
6.5889348640612e-65
0
1.1279056559387e-65
0
1.1025147883545e-65
0
2.2231992939534e-66
3.0385816786432e-66
1.4102035455141e-66
0
1.1394681294912e-66
0
0
0
0
0
0
0
0
0
0
0
0
0
0
1.5941159119845e-57
7.9792355406827e-58
1.8469069778776e-55
9.3096169282106e-56
1.0500074523836e-53
5.335037062608e-54
3.9058019262636e-52
2.0015664204356e-52
1.0717904689622e-50
5.5417158460703e-51
2.3193171911944e-49
1.2103300648646e-49
4.1177766294305e-48
2.1697475904213e-48
6.1395512272529e-47
3.2686016329637e-47
7.8076434341244e-46
4.2022879351606e-46
8.6040396837743e-45
4.6820552586213e-45
8.3971175185978e-44
4.6154296534272e-44
7.463940818748e-43
4.135585182284e-43
6.216473385131e-42
3.4644662304214e-42
4.9485315444298e-41
2.7700443114653e-41
3.7881233407065e-40
2.1297982089293e-40
2.7737585454488e-39
1.5680459171882e-39
1.9227243587446e-38
1.0946712690793e-38
1.2492896123519e-37
7.175095391438e-38
7.555017809189e-37
4.3836550061716e-37
4.2352612451955e-36
2.4856886413863e-36
2.1971110461394e-35
1.305618168072e-35
1.0545300096409e-34
6.3500869793172e-35
4.685818447685e-34
2.8613590034965e-34
1.9297862714685e-33
1.1957525951319e-33
7.3755005334382e-33
4.6401321932842e-33
2.6194952260542e-32
1.6742301814886e-32
8.6570282493108e-32
5.624340187616e-32
2.6657179811875e-31
1.7614250127329e-31
7.6579751796116e-31
5.1492899375378e-31
2.0550851274945e-30
1.4069344317919e-30
5.1586885493279e-30
3.5975561570057e-30
1.2129703436887e-29
8.620602439183e-30
2.6755234392905e-29
1.9385994024904e-29
5.5449142942293e-29
4.097481455134e-29
1.0814217962712e-28
8.1526328246619e-29
1.9876531743023e-28
1.5292318863385e-28
3.4465474504988e-28
2.7074408497771e-28
5.6391051355627e-28
4.5267568460246e-28
8.6945375350907e-28
7.143138409083e-28
1.257790858417e-27
1.0609652305599e-27
1.6866457530145e-27
1.4723013540639e-27
2.0371285189989e-27
1.8720574340509e-27
2.1696262706632e-27
2.1151584501048e-27
2.1777724210958e-27
2.1631012794171e-27
2.1412623043793e-27
2.1429607919223e-27
2.0129106751233e-27
2.0584220218723e-27
1.7552429956216e-27
1.8637029711558e-27
1.3853290333738e-27
1.5508698223589e-27
9.6256349896254e-28
1.156173133604e-27
5.7168135653728e-28
7.5191788515062e-28
2.8187785174283e-28
4.150296271003e-28
1.1354932490268e-28
1.9024637348733e-28
3.804221300519e-29
7.232067229237e-29
1.1261557400556e-29
2.3562869021567e-29
3.1771080287254e-30
6.9926965609719e-30
8.9799738947074e-31
2.0048011732849e-30
2.5831028319143e-31
5.7454554778584e-31
7.5485981113487e-32
1.6646751136782e-31
2.2310436558709e-32
4.8795409003683e-32
6.65431817687e-33
1.444797875595e-32
2.001625505805e-33
4.3171867187621e-33
6.0672046780325e-34
1.3009670940962e-33
1.8494692270053e-34
3.9483678800043e-34
5.6519491909477e-35
1.2039250445775e-34
1.7254524307675e-35
3.6763446629336e-35
5.2455715088152e-36
1.1205382322165e-35
1.5845039218429e-36
3.3995668069411e-36
4.7496821400883e-37
1.0246616237187e-36
1.4122216906444e-37
3.0651137311703e-37
4.1648244662335e-38
9.0959104434069e-38
1.2184606199963e-38
2.6776817305754e-38
3.5369689640682e-39
7.8204722399215e-39
1.0189272905187e-39
2.2664243886756e-39
2.9136708197641e-40
6.5188101387314e-40
8.27228072806e-41
1.8612677302045e-40
2.3324214378128e-41
5.2767472939178e-41
6.5327823926516e-42
1.4857643252572e-41
1.8180674693608e-42
4.1559532176894e-42
5.0286336285349e-43
1.1551483313191e-42
1.382678137653e-43
3.1912217101853e-43
3.7802572659366e-44
8.7645508126967e-44
1.0278838628146e-44
2.3936051145458e-44
2.7802109253764e-45
6.5015590877496e-45
7.4818060315993e-46
1.7567585567971e-45
2.0035937112847e-46
4.7230122847947e-46
5.3402669910246e-47
1.263621117088e-46
1.4168869941268e-47
3.3649673573248e-47
3.7429519086512e-48
8.9201548147683e-48
9.8421917549083e-49
2.354689986555e-48
2.5851013102154e-49
6.1814515674344e-49
6.5939327140474e-50
1.6339590278115e-49
2.0469517858338e-50
3.9037492098119e-50
1.7003180564393e-50
0
0
0
0
0
0
0
0
0
0
0
0
1.4356467185153e-57
7.1652172840567e-58
2.4805424524048e-55
1.2378386422578e-55
1.9078113658445e-53
9.5536847211979e-54
9.1177091641099e-52
4.5908754601862e-52
3.1032562163542e-50
1.5730847379583e-50
8.1163911423628e-49
4.1456109871315e-49
1.7124073112378e-47
8.8187351608962e-48
3.0058681878408e-46
1.5617945407397e-46
4.4787187498393e-45
2.3493652575236e-45
5.754534855697e-44
3.0494412789231e-44
6.458420765037e-43
3.4593834595129e-43
6.3961750531e-42
3.4640897642437e-42
5.6610328924879e-41
3.098075297128e-41
4.5767145450816e-40
2.5257122118339e-40
3.4738420924418e-39
1.9279357869692e-39
2.5266067748441e-38
1.4077165110729e-38
1.7712685988522e-37
9.908059823976e-38
1.1912280995622e-36
6.6987349069291e-37
7.6219471379544e-36
4.3158218572487e-36
4.6018346388806e-35
2.6279415987322e-35
2.6037145762302e-34
1.5018344149088e-34
1.3734432070794e-33
8.013140233721e-34
6.7313326472136e-33
3.9775967946214e-33
3.0593223490732e-32
1.8330383563279e-32
1.2883113727989e-31
7.8348297206915e-32
5.026303244582e-31
3.1052897124418e-31
1.8175236817393e-30
1.1416093098616e-30
6.0957706361355e-30
3.8954091070031e-30
1.8981048078465e-29
1.2348084655371e-29
5.4940414617572e-29
3.6404414874643e-29
1.4805039734181e-28
9.9961390951206e-29
3.7212449027984e-28
2.5608805857768e-28
8.7436973701969e-28
6.1337936282674e-28
1.9253521221934e-27
1.3768365447909e-27
3.9832039946715e-27
2.9035861909808e-27
7.759798206061e-27
5.7665417181115e-27
1.4259595166771e-26
1.0806089470906e-26
2.4740136314182e-26
1.9131072725324e-26
4.0525643342975e-26
3.2011199583214e-26
6.259389350682e-26
5.0590184159764e-26
9.0803962127461e-26
7.5327295494175e-26
1.223783125016e-25
1.0495650857988e-25
1.4924801081529e-25
1.3445981824182e-25
1.6072567901381e-25
1.5370879983314e-25
1.616353493327e-25
1.5833149593594e-25
1.5955926884345e-25
1.5721214897818e-25
1.5113047702808e-25
1.5187375393209e-25
1.3333436617816e-25
1.3883453032844e-25
1.0695407811118e-25
1.1713063875718e-25
7.5945980839651e-26
8.8951350994339e-26
4.6432657115683e-26
5.9285241902717e-26
2.3778285564277e-26
3.3789240351526e-26
1.0030532568027e-26
1.6123503222858e-26
3.5286719916975e-27
6.416261625695e-27
1.0902198242725e-27
2.1868170830546e-27
3.1755648631308e-28
6.7406281836606e-28
9.1922908089696e-29
1.9901849435751e-28
2.7004659670557e-29
5.8420885544287e-29
8.0659182732215e-30
1.7310251498746e-29
2.441954267647e-30
5.1934539480114e-30
7.4779346061854e-31
1.576924208713e-30
2.3137368229832e-31
4.8417162480139e-31
7.2217000921958e-32
1.5015278745863e-31
2.2670720146146e-32
4.6933675950464e-32
7.1284864255294e-33
1.4736010021434e-32
2.2352807685714e-33
4.6282416903942e-33
6.964290979106e-34
1.4482308081617e-33
2.1507768505587e-34
4.5005865638531e-34
6.5768248385247e-35
1.3863113344003e-34
1.9910173256451e-35
4.2290676578067e-35
5.969134474643e-36
1.2775483074607e-35
1.7730453655968e-36
3.8227416632657e-36
5.2201330250385e-37
1.1334469418599e-36
1.52389036551e-37
3.3313335390951e-37
4.4124645588307e-38
9.7090552296013e-38
1.2676722981911e-38
2.8068763400631e-38
3.6147176693425e-39
8.051952646398e-39
1.0233510483939e-39
2.2927340734434e-39
2.8773562834406e-40
6.4821642704479e-40
8.0372949631063e-41
1.8202609748263e-40
2.2309719903103e-41
5.0783280791528e-41
6.155444831353e-42
1.4079914813653e-41
1.6885428750529e-42
3.8804578055762e-42
4.6062958041267e-43
1.0633452209858e-42
1.2498916836515e-43
2.8978263740144e-43
3.3741301155789e-44
7.855424660252e-44
9.0636536644363e-45
2.1186196288337e-44
2.4231054361776e-45
5.6859778757566e-45
6.4485625608428e-46
1.5187770302955e-45
1.7079313762865e-46
4.0389531370691e-46
4.5177576225689e-47
1.0679519421642e-46
1.1600943320361e-47
2.84323311277e-47
3.6299730377245e-48
6.8326922992108e-48
3.0074019512806e-48
0
0
0
0
0
0
0
0
0
0
6.5423374059567e-58
3.2504557046263e-58
1.5262793415708e-55
7.5606450522442e-56
1.524616621956e-53
7.5520423930822e-54
9.1089078276953e-52
4.5225638464733e-52
3.7773666957561e-50
1.8830654250722e-50
1.1802161113539e-48
5.9150721844551e-49
2.9278060962052e-47
1.4766971560066e-47
5.9806703146561e-46
3.038132027096e-46
1.0306448400517e-44
5.2772765930739e-45
1.5245712738223e-43
7.8743536674453e-44
1.9630744807437e-42
1.0234930600692e-42
2.2227473103489e-41
1.1706503574033e-41
2.2309195005247e-40
1.1875945158756e-40
2.0031521660125e-39
1.0782417974831e-39
1.6217523193831e-38
8.8246013113978e-39
1.2012206154422e-37
6.5936050320192e-38
8.3833141991761e-37
4.6238261453254e-37
5.6867469539463e-36
3.1422759441354e-36
3.7728225090594e-35
2.0904186909322e-35
2.4077633304164e-34
1.3430235039516e-34
1.454336765781e-33
8.19676132551e-34
8.2565995962954e-33
4.7107610504346e-33
4.3956069955549e-32
2.5406050110394e-32
2.1900309301252e-31
1.2830118519896e-31
1.0183951286568e-30
6.0515586630477e-31
4.406598465982e-30
2.6583731756202e-30
1.7692289982905e-29
1.0846831813114e-29
6.575483908881e-29
4.1013556808505e-29
2.2580471285204e-28
1.4345019020264e-28
7.1553986162154e-28
4.6350552682174e-28
2.0908278578066e-27
1.3824533822688e-27
5.6335331135945e-27
3.8055570562677e-27
1.4009561185763e-26
9.6747040627564e-27
3.2226873810246e-26
2.2754666871255e-26
6.8846299656563e-26
4.967438889156e-26
1.3739922824481e-25
1.0116526412157e-25
2.5811569635829e-25
1.9352253172009e-25
4.6008816996079e-25
3.5042400270532e-25
7.8314390508481e-25
6.0485815760646e-25
1.2763911983841e-24
9.9941005321319e-25
1.9874765946773e-24
1.5807132892602e-24
2.93528055992e-24
2.3820800669402e-24
4.0563669641065e-24
3.3872900173918e-24
5.1090808999589e-24
4.461732263714e-24
5.6739390362521e-24
5.2722113939476e-24
5.7476020993825e-24
5.5418418381256e-24
5.7123896147569e-24
5.5293047442055e-24
5.4662202062349e-24
5.3849104380162e-24
4.898905523634e-24
4.9882282809059e-24
4.0063499730091e-24
4.2814024902934e-24
2.9133798477434e-24
3.3210760364552e-24
1.834400834655e-24
2.2715346499708e-24
9.742591694469e-25
1.3364428969487e-24
4.2915612849644e-25
6.6262966549199e-25
1.5810722441042e-25
2.7533397843279e-25
5.0940471887908e-26
9.7989440993761e-26
1.5335300731687e-26
3.1367676400732e-26
4.5536750801448e-27
9.5477257524693e-27
1.3681082964137e-27
2.8745985815131e-27
4.1808743319038e-28
8.7207458901789e-28
1.2976884266361e-28
2.6806720424203e-28
4.0837815379359e-29
8.3548948871674e-29
1.3010770172273e-29
2.6385976948564e-29
4.1864670124386e-30
8.4308173495489e-30
1.3550301795094e-30
2.717309586481e-30
4.3887280374715e-31
8.7953910763686e-31
1.4148728818083e-31
2.8442757673404e-31
4.5211549835264e-32
9.1452272817448e-32
1.4283366395041e-32
2.9131718149966e-32
4.4572381289831e-33
9.1751736327101e-33
1.3741887612926e-33
2.8553821806671e-33
4.1887521724792e-34
8.7825939570476e-34
1.2633526105577e-34
2.6715448822612e-34
3.7727609836587e-35
8.0423010994944e-35
1.1161548202975e-35
2.3973972479487e-35
3.272802811191e-36
7.0805382318427e-36
9.5154452459472e-37
2.0728033949259e-36
2.7442790057511e-37
6.0172822051992e-37
7.8539151975818e-38
1.7328812298577e-37
2.2313242885472e-38
4.9525655329965e-38
6.2951598831478e-39
1.4052110737987e-38
1.7642356725403e-39
3.9595790883788e-39
4.9129260939319e-40
1.1083791744599e-39
1.3598047808464e-40
3.0830855576963e-40
3.7417632496753e-41
8.5242825989503e-41
1.0238651047008e-41
2.3432265823356e-41
2.7865852357288e-42
6.4055552226282e-42
7.5449372840614e-43
1.7417281259744e-42
2.0327066855695e-43
4.7116736263509e-43
5.4504175147589e-44
1.2682809161553e-43
1.4541844219991e-44
3.3982660816592e-44
3.8742806031693e-45
9.0514715302256e-45
1.0016420487859e-45
2.4274209376484e-45
3.1596784564265e-46
5.8680464141591e-46
2.6106919362231e-46
0
0
0
0
0
0
0
0
0
0
3.8674888433593e-56
1.8903001154025e-56
6.451300866261e-54
3.1545479305212e-54
5.1792415821656e-52
2.5364037662055e-52
2.6712214045474e-50
1.3117087049754e-50
9.997046839524e-49
4.9275564209628e-49
2.9050267349425e-47
1.4386309266566e-47
6.8461587040436e-46
3.4090859371055e-46
1.349329516276e-44
6.7612794028299e-45
2.2705495649638e-43
1.1457480191633e-43
3.3135154130199e-42
1.6850707758851e-42
4.2456173929072e-41
2.1776448512044e-41
4.8142203511638e-40
2.4923909747952e-40
4.8704440192206e-39
2.546944290462e-39
4.4248527926862e-38
2.3388593527005e-38
3.6259729194373e-37
1.9384935657454e-37
2.6937318701062e-36
1.4563275937382e-36
1.843097471464e-35
1.0051118922678e-35
1.1935441876594e-34
6.5283901658834e-35
7.6668904559298e-34
4.1809427333553e-34
5.0748617735905e-33
2.7590262342434e-33
3.431057178666e-32
1.8726885205e-32
2.276226536083e-31
1.2570515777408e-31
1.4297076405942e-30
8.0236442466011e-31
8.3249675029568e-30
4.7555504157183e-30
4.4458684818065e-29
2.586780223019e-29
2.1658416716989e-28
1.2842713596634e-28
9.5987566678407e-28
5.8045357430919e-28
3.8654819758527e-27
2.3858183693599e-27
1.4139631232096e-26
8.9162290892472e-27
4.6971157141927e-26
3.0297781314476e-26
1.4160069874509e-25
9.3574361736955e-26
3.8669975597359e-25
2.623328848431e-25
9.5381048499777e-25
6.6593079172636e-25
2.1168070941114e-24
1.5255146794418e-24
4.2122832860464e-24
3.1423410424416e-24
7.5168755734982e-24
5.8118688094581e-24
1.2132367553444e-23
9.6978094180737e-24
1.8060868782366e-23
1.481349946588e-23
2.5492087619377e-23
2.1219940196896e-23
3.5072413951655e-23
2.931075627739e-23
4.7932978094485e-23
3.9939554853707e-23
6.5307950913485e-23
5.4240631402349e-23
8.7429396295684e-23
7.2972307733728e-23
1.1116647830912e-22
9.5020420107995e-23
1.2759899892514e-22
1.148465329803e-22
1.3125531138893e-22
1.2405914191322e-22
1.3133940039346e-22
1.2482710977211e-22
1.2689597115465e-22
1.2246446894569e-22
1.1588778899141e-22
1.1515688190138e-22
9.6803672648079e-23
1.0074978672997e-22
7.2194562770088e-23
7.9967036706769e-23
4.682624928836e-23
5.6182418789718e-23
2.5760838346247e-23
3.4111209746601e-23
1.1819634929744e-23
1.7544495081495e-23
4.5483833193039e-24
7.5938227051767e-24
1.5264899539611e-24
2.8168420981054e-24
4.7532389880428e-25
9.3611962468599e-25
1.4503753256039e-25
2.9404234477839e-25
4.4641925869812e-26
9.0942737724041e-26
1.3978593676495e-26
2.8292298394793e-26
4.4539777693771e-27
8.9231619359218e-27
1.4422219656925e-27
2.8585529039634e-27
4.7373694938294e-28
9.2983508229252e-28
1.5734900155872e-28
3.0651622587295e-28
5.2576006888431e-29
1.0200475149427e-28
1.756080050621e-29
3.40804729086e-29
5.8267167387095e-30
1.1360646802364e-29
1.9113359283805e-30
3.7572330440816e-30
6.1816525759443e-31
1.2278755475043e-30
1.969722528955e-31
3.956964814509e-31
6.1871584095682e-32
1.2569305926877e-31
1.9180598734669e-32
3.9379244400119e-32
5.8752866745143e-33
1.2180751228728e-32
1.7799749919222e-33
3.7237329078486e-33
5.3375575217362e-34
1.1260569116009e-33
1.5851700944338e-34
3.3707574298424e-34
4.6648743055605e-35
9.9939532935906e-35
1.3609527966576e-35
2.936411033825e-35
3.9380467523612e-36
8.5541027083068e-36
1.1306710969981e-36
2.4717466632052e-36
3.2223936682187e-37
7.0873720274593e-37
9.1193394545306e-38
2.0173641950832e-37
2.5635013506439e-38
5.7023504555015e-38
7.1601263926894e-39
1.6011591822563e-38
1.987679776131e-39
4.4674087596557e-39
5.4855923379623e-40
1.2389030120279e-39
1.5054170646663e-40
3.4157853988546e-40
4.1090771594776e-41
9.3652368999774e-41
1.1157696271062e-41
2.5539909023898e-41
3.0147680163864e-42
6.9290359613321e-42
8.103718797167e-43
1.8708651327671e-42
2.174868554878e-43
5.0204434684876e-43
5.6618422894764e-44
1.356420060524e-43
1.800894440085e-44
3.2987079442837e-44
1.4838539072967e-44
0
0
0
0
0
0
0
0
2.6154539870035e-67
6.5367684382146e-68
1.1042683219139e-54
5.3028149345013e-55
1.607144540187e-52
7.7374617691945e-53
1.1544389358032e-50
5.5745698954603e-51
5.4462098882243e-49
2.6391833454915e-49
1.8976394763703e-47
9.2335402317967e-48
5.2084562626886e-46
2.5461587461174e-46
1.1732316788479e-44
5.7651815028273e-45
2.2322490069818e-43
1.1032161546338e-43
3.6581747320498e-42
1.8194014720996e-42
5.242277445986e-41
2.6254457183432e-41
6.6450286664479e-40
3.3537138200149e-40
7.501602158903e-39
3.8181057151489e-39
7.6053860284641e-38
3.9068996576025e-38
6.9516560054674e-37
3.6071794885618e-37
5.7532989930682e-36
3.0172536490028e-36
4.3377467310565e-35
2.3021546787065e-35
2.9661886140873e-34
1.5934365028789e-34
1.8671065578277e-33
1.0099280131311e-33
1.152450003383e-32
6.2042616289571e-33
7.6230804378718e-32
4.0503708585429e-32
5.6249497425905e-31
2.963896055253e-31
4.4482481137044e-30
2.3527529825619e-30
3.4760214652226e-29
1.8636137675154e-29
2.5190715569988e-28
1.3759836637263e-28
1.6421241893557e-27
9.1560648390795e-28
9.5195969263028e-27
5.4227642281701e-27
4.8895960166068e-26
2.8481165377423e-26
2.2235250393369e-25
1.3259502130516e-25
8.956353704395e-25
5.4759898074761e-25
3.1981356681315e-24
2.0083071923524e-24
1.0130516718605e-23
6.5473041509742e-24
2.8461343929027e-23
1.8976105108027e-23
7.0861823545644e-23
4.8900050859474e-23
1.5561959387719e-22
1.1156003338074e-22
3.0087805799262e-22
2.250959246844e-22
5.067352250733e-22
3.9933138122418e-22
7.2723811008381e-22
6.1079544785116e-22
8.9287811115544e-22
7.9637315741347e-22
9.935010319526e-22
9.1632028632535e-22
1.0691872745618e-21
9.9375880648195e-22
1.1588113933379e-21
1.067843940531e-21
1.2958004527845e-21
1.1696131811298e-21
1.504659860118e-21
1.3264267603662e-21
1.7840426652934e-21
1.551212002451e-21
2.0530544411639e-21
1.8121309682503e-21
2.1622754130466e-21
1.9931198437357e-21
2.1680906355632e-21
2.027659628368e-21
2.1218514029946e-21
2.0042972802409e-21
1.9728357154829e-21
1.9118279042225e-21
1.6861963549379e-21
1.7065501268959e-21
1.2914451695868e-21
1.3877540711921e-21
8.6324019333252e-22
1.0023036215809e-21
4.9155271774009e-22
6.2794190888425e-22
2.3451674290825e-22
3.346721232344e-22
9.4101962516226e-23
1.5065842493504e-22
3.2882183277241e-23
5.8186372412293e-23
1.0602843015777e-23