# vtk DataFile Version 2.0
track0
ASCII
DATASET POLYDATA
POINTS 10947 float
-0.0205 0.001 1e-05
-0.02052 0.00100026 1e-05
-0.02054 0.00100046 1e-05
-0.02056 0.00100062 1e-05
-0.02058 0.00100072 1e-05
-0.0206 0.00100077 1e-05
-0.0205 0.00367778 1e-05
-0.02052 0.0036779 1e-05
-0.02054 0.00367799 1e-05
-0.02056 0.00367806 1e-05
-0.02058 0.00367811 1e-05
-0.0206 0.00367814 1e-05
-0.0205 0.00635556 1e-05
-0.02052 0.00635559 1e-05
-0.02054 0.00635561 1e-05
-0.02056 0.00635563 1e-05
-0.02058 0.00635565 1e-05
-0.0206 0.00635565 1e-05
-0.0205 0.00903333 1e-05
-0.02052 0.00903335 1e-05
-0.02054 0.00903336 1e-05
-0.02056 0.00903337 1e-05
-0.02058 0.00903337 1e-05
-0.0206 0.00903337 1e-05
-0.0205 0.0117111 1e-05
-0.02052 0.0117111 1e-05
-0.02054 0.0117111 1e-05
-0.02056 0.0117111 1e-05
-0.02058 0.0117111 1e-05
-0.0206 0.0117111 1e-05
-0.0205 0.0143889 1e-05
-0.02052 0.0143889 1e-05
-0.02054 0.0143889 1e-05
-0.02056 0.0143889 1e-05
-0.02058 0.0143889 1e-05
-0.0206 0.0143889 1e-05
-0.0205 0.0170667 1e-05
-0.02052 0.0170666 1e-05
-0.02054 0.0170666 1e-05
-0.02056 0.0170666 1e-05
-0.02058 0.0170666 1e-05
-0.0206 0.0170666 1e-05
-0.0205 0.0197444 1e-05
-0.02052 0.0197444 1e-05
-0.02054 0.0197443 1e-05
-0.02056 0.0197443 1e-05
-0.02058 0.0197443 1e-05
-0.0206 0.0197443 1e-05
-0.0205 0.0224222 1e-05
-0.02052 0.0224221 1e-05
-0.02054 0.022422 1e-05
-0.02056 0.0224219 1e-05
-0.02058 0.0224218 1e-05
-0.0206 0.0224218 1e-05
-0.0205 0.0251 1e-05
-0.02052 0.0250982 1e-05
-0.02054 0.0250967 1e-05
-0.0205601 0.0250956 1e-05
-0.0205802 0.0250949 1e-05
-0.0206 0.0250945 1e-05
-0.0205 0.001 1e-05
-0.0202034 0.000996197 1e-05
-0.0199071 0.00098489 1e-05
-0.0196111 0.000966198 1e-05
-0.0193156 0.000939962 1e-05
-0.0190172 0.000906931 1e-05
-0.0187132 0.000873114 1e-05
-0.0184093 0.000839444 1e-05
-0.0181054 0.000805918 1e-05
-0.0178013 0.000773772 1e-05
-0.0174976 0.000743958 1e-05
-0.0173143 0.00072728 1e-05
-0.0171309 0.00071144 1e-05
-0.0169475 0.000696308 1e-05
-0.016764 0.00068181 1e-05
-0.0164832 0.000660565 1e-05
-0.0163943 0.000654282 1e-05
-0.0163054 0.000648141 1e-05
-0.0162164 0.000642137 1e-05
-0.0161275 0.000636271 1e-05
-0.0160387 0.000630535 1e-05
-0.0157586 0.000612661 1e-05
-0.0154784 0.000596027 1e-05
-0.0151981 0.000580435 1e-05
-0.0149178 0.000565833 1e-05
-0.0146381 0.000552038 1e-05
-0.0143692 0.000539154 1e-05
-0.0141002 0.000527193 1e-05
-0.0138312 0.000516089 1e-05
-0.0135621 0.000505607 1e-05
-0.0132934 0.000495407 1e-05
-0.0130353 0.000485862 1e-05
-0.0127771 0.000477021 1e-05
-0.0125188 0.000468842 1e-05
-0.0122606 0.000461036 1e-05
-0.0120025 0.000453401 1e-05
-0.0117547 0.000446225 1e-05
-0.0115068 0.000439582 1e-05
-0.0112589 0.000433386 1e-05
-0.011011 0.00042742 1e-05
-0.0107632 0.000421597 1e-05
-0.0105252 0.000416095 1e-05
-0.0102873 0.000411 1e-05
-0.0100493 0.000406163 1e-05
-0.00981129 0.000401492 1e-05
-0.00957337 0.000396961 1e-05
-0.00934491 0.000392655 1e-05
-0.00911645 0.000388668 1e-05
-0.00888798 0.000384819 1e-05
-0.00865951 0.000381094 1e-05
-0.00843108 0.00037749 1e-05
-0.00821175 0.000374056 1e-05
-0.00799242 0.000370845 1e-05
-0.00777308 0.000367728 1e-05
-0.00755375 0.000364702 1e-05
-0.00733443 0.000361767 1e-05
-0.00712387 0.000358976 1e-05
-0.0069133 0.000356336 1e-05
-0.00670273 0.000353766 1e-05
-0.00649216 0.000351263 1e-05
-0.0062816 0.000348828 1e-05
-0.00607944 0.000346517 1e-05
-0.00587729 0.000344306 1e-05
-0.00567513 0.000342145 1e-05
-0.00547298 0.000340033 1e-05
-0.00527083 0.000337971 1e-05
-0.00507675 0.000336015 1e-05
-0.00488267 0.000334121 1e-05
-0.0046886 0.000332259 1e-05
-0.00449452 0.000330431 1e-05
-0.00430044 0.000328635 1e-05
-0.00411412 0.000326931 1e-05
-0.0039278 0.000325254 1e-05
-0.00374147 0.000323592 1e-05
-0.00355515 0.000321944 1e-05
-0.00336883 0.00032031 1e-05
-0.00333507 0.000320016 1e-05
-0.00330131 0.000319722 1e-05
-0.00326755 0.000319427 1e-05
-0.00323379 0.000319132 1e-05
-0.00320052 0.000318841 1e-05
-0.0030553 0.000317566 1e-05
-0.00291009 0.000316282 1e-05
-0.00276487 0.000314988 1e-05
-0.00261965 0.000313685 1e-05
-0.00247443 0.000312372 1e-05
-0.0023027 0.000310791 1e-05
-0.00213097 0.00030916 1e-05
-0.00195924 0.000307457 1e-05
-0.00178751 0.000305682 1e-05
-0.00161577 0.000303836 1e-05
-0.0014509 0.000301951 1e-05
-0.00128603 0.000299879 1e-05
-0.00112117 0.000297515 1e-05
-0.000956308 0.000294863 1e-05
-0.000791418 0.000291927 1e-05
-0.000633135 0.000288694 1e-05
-0.000474865 0.000284844 1e-05
-0.000316618 0.000280139 1e-05
-0.000158399 0.000274589 1e-05
0 0.000268195 1e-05
0.000105677 0.000263207 1e-05
0.000211297 0.000257109 1e-05
0.000316887 0.000250533 1e-05
0.000422446 0.00024347 1e-05
0.000528387 0.000236118 1e-05
0.000634886 0.000229594 1e-05
0.000741336 0.00022231 1e-05
0.000847761 0.000214674 1e-05
0.000954186 0.000207033 1e-05
0.00106088 0.000199935 1e-05
0.00116821 0.000193642 1e-05
0.00127552 0.000187009 1e-05
0.0013828 0.000180046 1e-05
0.0014901 0.00017323 1e-05
0.00159752 0.000166964 1e-05
0.00170568 0.000161229 1e-05
0.00181383 0.00015533 1e-05
0.00192198 0.000149269 1e-05
0.00203013 0.000143317 1e-05
0.00213833 0.000137755 1e-05
0.00224733 0.000132554 1e-05
0.00235633 0.000127271 1e-05
0.00246532 0.000121918 1e-05
0.00257432 0.000116681 1e-05
0.00268334 0.000111704 1e-05
0.00279319 0.000106981 1e-05
0.00290304 0.000102211 1e-05
0.00301288 9.74547e-05 1e-05
0.00312274 9.27923e-05 1e-05
0.00323259 8.82769e-05 1e-05
0.00334329 8.3946e-05 1e-05
0.00345399 7.95836e-05 1e-05
0.0035647 7.527e-05 1e-05
0.00367541 7.10308e-05 1e-05
0.00378611 6.68724e-05 1e-05
0.00389767 6.28519e-05 1e-05
0.00400924 5.88122e-05 1e-05
0.0041208 5.4832e-05 1e-05
0.00423237 5.09107e-05 1e-05
0.00434393 4.70481e-05 1e-05
0.00445636 4.32714e-05 1e-05
0.00456879 3.94975e-05 1e-05
0.00468123 3.57707e-05 1e-05
0.00479366 3.20907e-05 1e-05
0.00490609 2.84573e-05 1e-05
0.0050194 2.48703e-05 1e-05
0.0051327 2.12985e-05 1e-05
0.00524601 1.77637e-05 1e-05
0.00535932 1.42655e-05 1e-05
0.00547262 1.08039e-05 1e-05
0.00554428 8.64315e-06 1e-05
0.00561593 6.4892e-06 1e-05
0.00568759 4.34638e-06 1e-05
0.00575925 2.21463e-06 1e-05
0.00583408 0 1e-05
0.00587598 -1.23321e-06 1e-05
0.00591787 -2.46276e-06 1e-05
0.00595977 -3.68865e-06 1e-05
0.00600166 -4.9109e-06 1e-05
0.00604356 -6.12949e-06 1e-05
0.00615863 -9.46126e-06 1e-05
0.00627371 -1.27793e-05 1e-05
0.00638878 -1.60773e-05 1e-05
0.00650386 -1.93555e-05 1e-05
0.00661893 -2.26139e-05 1e-05
0.0067349 -2.5861e-05 1e-05
0.00685087 -2.91147e-05 1e-05
0.00696684 -3.2355e-05 1e-05
0.00708281 -3.5582e-05 1e-05
0.00719878 -3.87959e-05 1e-05
0.00731565 -4.19962e-05 1e-05
0.00743252 -4.52188e-05 1e-05
0.00754939 -4.84338e-05 1e-05
0.00766626 -5.16413e-05 1e-05
0.00778313 -5.48413e-05 1e-05
0.00790091 -5.80278e-05 1e-05
0.00801869 -6.12487e-05 1e-05
0.00813647 -6.44674e-05 1e-05
0.00825425 -6.76839e-05 1e-05
0.00837203 -7.08983e-05 1e-05
0.00849073 -7.41003e-05 1e-05
0.00860942 -7.73468e-05 1e-05
0.00872812 -8.05961e-05 1e-05
0.00884681 -8.38482e-05 1e-05
0.00896551 -8.71001e-05 1e-05
0.00908513 -9.03446e-05 1e-05
0.00920475 -9.36355e-05 1e-05
0.00932436 -9.69407e-05 1e-05
0.00944398 -0.000100253 1e-05
0.0095636 -0.000103564 1e-05
0.00968415 -0.000106877 1e-05
0.0098047 -0.000110237 1e-05
0.00992524 -0.000113622 1e-05
0.0100458 -0.000117019 1e-05
0.0101663 -0.000120414 1e-05
0.0102878 -0.000123819 1e-05
0.0104093 -0.000127272 1e-05
0.0105308 -0.000130761 1e-05
0.0106523 -0.000134266 1e-05
0.0107738 -0.000137769 1e-05
0.0108962 -0.00014129 1e-05
0.0110186 -0.000144859 1e-05
0.0111411 -0.000148474 1e-05
0.0112635 -0.000152108 1e-05
0.0113859 -0.000155742 1e-05
0.0115093 -0.000159401 1e-05
0.0116327 -0.000163111 1e-05
0.0117561 -0.00016687 1e-05
0.0118794 -0.000170654 1e-05
0.0120028 -0.000174441 1e-05
0.0121272 -0.000178261 1e-05
0.0122515 -0.000182132 1e-05
0.0123759 -0.000186056 1e-05
0.0125002 -0.00019001 1e-05
0.0126245 -0.000193972 1e-05
0.0127498 -0.000197974 1e-05
0.0128752 -0.00020203 1e-05
0.0130005 -0.000206141 1e-05
0.0131258 -0.000210286 1e-05
0.0132511 -0.000214446 1e-05
0.0133774 -0.000218653 1e-05
0.0135036 -0.000222916 1e-05
0.0136299 -0.000227235 1e-05
0.0137562 -0.000231594 1e-05
0.0138825 -0.000235974 1e-05
0.0140098 -0.000240407 1e-05
0.014137 -0.000244899 1e-05
0.0142643 -0.000249449 1e-05
0.0143915 -0.000254043 1e-05
0.0145188 -0.000258664 1e-05
0.0146471 -0.000263346 1e-05
0.0147753 -0.00026809 1e-05
0.0149036 -0.00027289 1e-05
0.0150318 -0.000277738 1e-05
0.0151601 -0.000282624 1e-05
0.0152893 -0.000287577 1e-05
0.0154186 -0.000292595 1e-05
0.0155478 -0.000297669 1e-05
0.0156771 -0.000302793 1e-05
0.0158063 -0.000307966 1e-05
0.0159366 -0.000313213 1e-05
0.0160668 -0.000318527 1e-05
0.0161971 -0.000323898 1e-05
0.0163273 -0.000329323 1e-05
0.0164576 -0.000334804 1e-05
0.0165889 -0.000340368 1e-05
0.0167201 -0.000346 1e-05
0.0168514 -0.00035169 1e-05
0.0169827 -0.00035744 1e-05
0.0171139 -0.000363248 1e-05
0.0172462 -0.000369152 1e-05
0.0173785 -0.000375124 1e-05
0.0175108 -0.000381158 1e-05
0.0176431 -0.000387255 1e-05
0.0177754 -0.000393415 1e-05
0.0178517 -0.000397003 1e-05
0.0179281 -0.000400615 1e-05
0.0180044 -0.000404248 1e-05
0.0180808 -0.000407904 1e-05
0.0181522 -0.000411345 1e-05
0.0182101 -0.000414152 1e-05
0.0182681 -0.000416971 1e-05
0.0183261 -0.000419803 1e-05
0.018384 -0.000422648 1e-05
0.018442 -0.000425505 1e-05
0.0185763 -0.000432156 1e-05
0.0187107 -0.00043888 1e-05
0.018845 -0.000445674 1e-05
0.0189794 -0.000452538 1e-05
0.0191137 -0.000459474 1e-05
0.0192491 -0.000466528 1e-05
0.0193845 -0.000473665 1e-05
0.0195199 -0.000480875 1e-05
0.0196553 -0.00048816 1e-05
0.0197907 -0.000495521 1e-05
0.0199272 -0.000503003 1e-05
0.0200636 -0.000510577 1e-05
0.0202001 -0.000518228 1e-05
0.0203365 -0.000525958 1e-05
0.020473 -0.000533766 1e-05
0.0206105 -0.000541702 1e-05
0.020748 -0.000549733 1e-05
0.0208855 -0.00055785 1e-05
0.021023 -0.000566049 1e-05
0.0211606 -0.000574328 1e-05
0.0212991 -0.000582743 1e-05
0.0214377 -0.000591256 1e-05
0.0215763 -0.000599864 1e-05
[...]
POINT_DATA 10947
 FIELD attributes 2
p 1 10947 float
-0.508169 -0.507944 -0.507714 -0.507478 -0.507237 -0.506992
-0.378566 -0.378557 -0.37855 -0.378545 -0.378541 -0.378539
-0.229383 -0.229263 -0.229143 -0.229023 -0.228903 -0.228806
-0.14739 -0.147442 -0.147495 -0.147548 -0.147601 -0.147654
-0.11373 -0.113865 -0.114 -0.114136 -0.114271 -0.114406
-0.120567 -0.120696 -0.120825 -0.120955 -0.121084 -0.121214
-0.162207 -0.162298 -0.162389 -0.16248 -0.162571 -0.162662
-0.259961 -0.260014 -0.260067 -0.260121 -0.260175 -0.26023
-0.422924 -0.4229 -0.422878 -0.422858 -0.42284 -0.422824
-0.399166 -0.399952 -0.400698 -0.401405 -0.402072 -0.402692
-0.508169 -0.493768 -0.47975 -0.467169 -0.451445 -0.414959 -0.381383 -0.347815 -0.324293 -0.309136 -0.294197 -0.285254 -0.277282 -0.269792 -0.262308 -0.250865 -0.246967 -0.243076 -0.239194 -0.235428 -0.232399 -0.222183 -0.212604 -0.20307 -0.194179 -0.1866 -0.178433 -0.170341 -0.163326 -0.157703 -0.152092 -0.145935 -0.139791 -0.134643 -0.130415 -0.126192 -0.121456 -0.116918 -0.11308 -0.109645 -0.106434 -0.102745 -0.0994942 -0.0965262 -0.0936756 -0.0912285 -0.0883369 -0.0859896 -0.0836874 -0.0813859 -0.0794796 -0.0772912 -0.0755046 -0.0737187 -0.0719334 -0.0703926 -0.0687623 -0.0673862 -0.0660104 -0.0646351 -0.0634082 -0.0622129 -0.0611744 -0.0601361 -0.0590982 -0.0581449 -0.0573087 -0.0565639 -0.0558193 -0.0550748 -0.0543707 -0.053861 -0.053396 -0.052931 -0.0524661 -0.0520072 -0.0519732 -0.0519464 -0.0519196 -0.0518928 -0.0518664 -0.0517436 -0.0516207 -0.0514977 -0.0513746 -0.051294 -0.0515438 -0.0518429 -0.0521412 -0.0524387 -0.0528594 -0.0538716 -0.0550632 -0.0562504 -0.0574331 -0.0590162 -0.0611218 -0.0632104 -0.0652991 -0.0673878 -0.0723404 -0.0739218 -0.0736301 -0.0733846 -0.0726786 -0.0696568 -0.0644756 -0.0604362 -0.0574346 -0.0559212 -0.0550061 -0.0515231 -0.0480573 -0.0470798 -0.0483232 -0.0495448 -0.048694 -0.0478502 -0.0477768 -0.0486541 -0.0495187 -0.0491865 -0.0488676 -0.0487294 -0.0490846 -0.0495265 -0.049284 -0.0491176 -0.0490535 -0.0491826 -0.0495651 -0.0495067 -0.0495309 -0.0495807 -0.049651 -0.0500092 -0.0500691 -0.0501788 -0.0502873 -0.0503947 -0.0506592 -0.0507751 -0.0509146 -0.0510533 -0.0511913 -0.0514003 -0.0515558 -0.0517235 -0.0518908 -0.0520575 -0.0522455 -0.0523639 -0.0524862 -0.0526083 -0.0527303 -0.0528576 -0.0529269 -0.0529963 -0.0530656 -0.0531349 -0.0532075 -0.0534102 -0.0536227 -0.0538349 -0.054047 -0.0542704 -0.0544693 -0.0546991 -0.0549287 -0.0551583 -0.0554056 -0.0556038 -0.0558482 -0.0560926 -0.0563369 -0.0566058 -0.0568069 -0.0570646 -0.0573223 -0.0575801 -0.0578679 -0.0580729 -0.0583417 -0.0586105 -0.0588821 -0.0591829 -0.0594023 -0.0596696 -0.0599473 -0.0602336 -0.0605417 -0.0607747 -0.0610388 -0.0613232 -0.0616214 -0.0619342 -0.0621775 -0.0624383 -0.0627271 -0.0630342 -0.0633496 -0.0636003 -0.0638575 -0.0641487 -0.0644625 -0.064779 -0.0650349 -0.0652911 -0.0655827 -0.0658981 -0.0662135 -0.0664721 -0.0667309 -0.0670185 -0.0673309 -0.0676433 -0.0679022 -0.0681613 -0.0684439 -0.0687514 -0.069059 -0.0693158 -0.0695728 -0.0698492 -0.0701497 -0.0704503 -0.0707025 -0.0709561 -0.0712264 -0.0715152 -0.0718068 -0.0720522 -0.072303 -0.072565 -0.0728379 -0.0731185 -0.0733548 -0.0736001 -0.0738516 -0.0741076 -0.0743751 -0.0746001 -0.0748368 -0.0750755 -0.0753145 -0.0755659 -0.0757793 -0.0760025 -0.0762261 -0.07645 -0.0766806 -0.0768811 -0.0770871 -0.0772935 -0.0775002 -0.0777093 -0.0778143 -0.0779212 -0.0780282 -0.0781353 -0.0782356 -0.0783166 -0.0783977 -0.0784789 -0.0785602 -0.0786433 -0.0788058 -0.0789703 -0.0791351 -0.0793004 -0.0794716 -0.0796077 -0.0797488 -0.0798903 -0.0800322 -0.0801832 -0.0802921 -0.0804078 -0.080524 -0.0806423 -0.0807686 -0.0808512 -0.0809376 -0.0810265 -0.0811203 -0.0812181 -0.0812727 -0.0813285 -0.0813883 -0.081455 -0.0815224 -0.0815472 -0.0815726 -0.0816025 -0.0816374 -0.0816727 -0.081666 -0.0816599 -0.0816579 -0.081659 -0.0816607 -0.0816209 -0.0815824 -0.0815464 -0.0815117 -0.081478 -0.0814035 -0.0813305 -0.0812586 -0.0811872 -0.0811167 -0.0810059 -0.0808959 -0.0807865 -0.0806777 -0.0805693 -0.0804977 -0.0804259 -0.0803543 -0.0802829 -0.080215 -0.0801378 -0.0800607 -0.0799838 -0.079907 -0.0798302 -0.0796417 -0.0794535 -0.079266 -0.0790791 -0.0788911 -0.078663 -0.078434 -0.0782057 -0.0779771 -0.0777466 -0.0774771 -0.0772078 -0.0769379 -0.0766646 -0.0763913 -0.0760796 -0.0757687 -0.0754547 -0.0751374 -0.0748205 -0.074466 -0.0741117 -0.073752 -0.0733912 -0.0730303 -0.0726322 -0.0722296 -0.0718255 -0.0714222 -0.071017 -0.0705814 -0.070141 -0.0697014 -0.0692626 -0.0688626 -0.0688457 -0.0688289 -0.068812 -0.0687951 -0.068778 -0.0682838 -0.0677903 -0.0672978 -0.0668061 -0.0663073 -0.065771 -0.0652328 -0.0646954 -0.0641549 -0.0636069 -0.063026 -0.0624457 -0.0618631 -0.0612697 -0.0606763 -0.0600508 -0.0594262 -0.0587923 -0.0581538 -0.0575154 -0.0568456 -0.0561698 -0.0554883 -0.0548077 -0.0541248 -0.0534566 -0.0527792 -0.0521027 -0.051427 -0.0508025 -0.0507434 -0.0506842 -0.050625 -0.0505659 -0.0505057 -0.0497361 -0.0489673 -0.0481995 -0.0474327 -0.0466517 -0.0458418 -0.0450311 -0.0442209 -0.0434013 -0.0425746 -0.0417228 -0.0408721 -0.0400141 -0.0391464 -0.0382782 -0.0373856 -0.0364897 -0.0355822 -0.0346753 -0.0337669 -0.0328328 -0.0318849 -0.030938 -0.0299923 -0.0290457 -0.0290453 -0.0290449 -0.0290445 -0.0290441 -0.0290436 -0.0280573 -0.0270722 -0.0260881 -0.0251052 -0.0241036 -0.0230814 -0.0220597 -0.0210389 -0.0200048 -0.0189639 -0.0179062 -0.0168496 -0.0157821 -0.0147088 -0.0136341 -0.0125428 -0.0114425 -0.0103351 -0.00922886 -0.00812163 -0.00754564 -0.00696099 -0.00637667 -0.00579266 -0.00522965 -0.00467012 -0.00411088 -0.00355193 -0.00299328 -0.0024239 -0.00125273 -8.27132e-05 0.00108609 0.00226218 0.00345365 0.00465294 0.00585097 0.00705464 0.00827016 0.00948815 0.0107133 0.0119441 0.0131865 0.0144275 0.0156698 0.016439 0.0172189 0.0179986 0.0187779 0.0195252 0.0200187 0.020512 0.0210052 0.0214981 0.0220006 0.023292 0.0245818 0.0258703 0.0271661 0.028479 0.0297902 0.0311 0.0324163 0.0337429 0.0350732 0.0364017 0.0377381 0.0390832 0.0404271 0.0417729 0.0423197 0.0428728 0.0434263 0.0439796 0.0445185 0.0453305 0.046142 0.046953 0.0477642 0.0485902 0.0499688 0.0513449 0.0527195 0.0541074 0.0555068 0.0568959 0.0582836 0.0596852 0.0610872 0.0624944 0.0638493 0.0652176 0.066587 0.067955 0.0692415 0.0693019 0.0693623 0.0694227 0.0694832 0.0695446 0.0709699 0.0723937 0.0738162 0.0752405 0.0766891 0.078119 0.0795474 0.0809779 0.0824208 0.0838702 0.0853015 0.0867389 0.0881847 0.089629 0.091078 0.0915232 0.091972 0.0924217 0.0928713 0.0933123 0.0943146 0.0953162 0.0963172 0.0973197 0.0983388 0.0997895 0.101238 0.102684 0.104148 0.10562 0.107066 0.108513 0.109973 0.11143 0.112894 0.113612 0.114334 0.115058 0.115782 0.116484 0.117221 0.117958 0.118695 0.119433 0.120186 0.121635 0.123085 0.124533 0.126001 0.127483 0.128921 0.130359 0.131817 0.133274 0.134742 0.135518 0.136301 0.137087 0.137872 0.138632 0.1393 0.139968 0.140635 0.141305 0.141984 0.143421 0.144857 0.14629 0.14774 0.149202 0.150623 0.152048 0.153481 0.154913 0.156356 0.156549 0.156742 0.156936 0.157129 0.157322 0.158554 0.159785 0.161016 0.16225 0.163499 0.164909 0.166316 0.16773 0.169143 0.170571 0.171251 0.171932 0.172615 0.173298 0.173961 0.174686 0.175411 0.176135 0.176862 0.177595 0.178984 0.180372 0.181761 0.183153 0.18456 0.185436 0.186314 0.187193 0.188072 0.188919 0.189425 0.189931 0.190437 0.190945 0.191456 0.192821 0.194185 0.195548 0.196915 0.198298 0.199138 0.199979 0.200821 0.201662 0.202476 0.202993 0.203509 0.204026 0.204544 0.205066 0.206404 0.207741 0.209078 0.210419 0.211775 0.212401 0.213027 0.213654 0.214282 0.214895 0.215598 0.216301 0.217004 0.21771 0.218421 0.219729 0.221037 0.222349 0.223663 0.22499 0.225278 0.225566 0.225855 0.226145 0.226431 0.227447 0.228462 0.229477 0.230499 0.231528 0.232686 0.233845 0.235011 0.236177 0.23732 0.237448 0.237577 0.237706 0.237836 0.237966 0.239242 0.240521 0.241801 0.243095 0.244392 0.245065 0.245739 0.246421 0.247102 0.247784 0.24837 0.248956 0.249541 0.250137 0.250731 0.251969 0.253207 0.254462 0.255725 0.256981 0.257216 0.257453 0.257693 0.257933 0.258175 0.25917 0.260166 0.261161 0.262177 0.263179 0.264276 0.265378 0.2665 0.267621 0.268841 0.268908 0.268976 0.269043 0.269112 0.269181 0.270358 0.27154 0.272721 0.273932 0.27511 0.276107 0.277114 0.278139 0.279163 0.280354 0.28043 0.280505 0.280581 0.280658 0.280737 0.281828 0.282923 0.284016 0.285143 0.286251 0.287254 0.288256 0.289305 0.290361 0.291405 0.291872 0.292355 0.292845 0.293333 0.293892 0.294371 0.294848 0.295324 0.295803 0.296293 0.297193 0.29812 0.299044 0.299991 0.300929 0.301767 0.302601 0.303461 0.304355 0.305233 0.306015 0.306812 0.307618 0.30842 0.309238 0.309757 0.31029 0.310822 0.311352 0.31201 0.312205 0.312399 0.312594 0.312788 0.31296 0.313691 0.314402 0.315111 0.315816 0.316422 0.317159 0.317833 0.318496 0.319109 0.319661 0.320355 0.321036 0.321657 0.322177 0.322695 0.323348 0.323998 0.324567 0.325053 0.325538 0.326153 0.326766 0.327293 0.327749 0.328204 0.328783 0.329333 0.329822 0.330276 0.330702 0.331247 0.331735 0.332195 0.332645 0.333044 0.333557 0.333989 0.334421 0.334852 0.335238 0.335698 0.336103 0.336509 0.336914 0.337292 0.337704 0.338084 0.338464 0.338844 0.339214 0.339462 0.339698 0.339935 0.340171 0.340445 0.340557 0.34067 0.340782 0.340894 0.340992 0.341341 0.341675 0.342009 0.342343 0.34262 0.342986 0.343299 0.343611 0.343923 0.344142 0.344521 0.344813 0.345104 0.345395 0.345562 0.345951 0.346222 0.346493 0.346764 0.346885 0.347279 0.347532 0.347784 0.348033 0.348115 0.3485 0.348746 0.34898 0.349187 0.349257 0.349619 0.349871 0.350088 0.350255 0.350314 0.350655 0.35091 0.35111 0.351242 0.351291 0.351611 0.351867 0.352051 0.352152 0.35219 0.35249 0.352745 0.352915 0.352987 0.353015 0.353297 0.35355 0.353705 0.353751 0.353771 0.354034 0.354284 0.354425 0.354448 0.354459 0.354705 0.35495 0.355077 0.35508 0.355083 0.355313 0.355542 0.355656 0.355651 0.355646 0.35586 0.356073 0.356175 0.356163 0.356151 0.356349 0.356547 0.356638 0.356619 0.3566 0.356784 0.356967 0.357047 0.357021 0.356996 0.357166 0.357335 0.357405 0.357373 0.357342 0.357498 0.357654 0.357714 0.357676 0.357639 0.357783 0.357926 0.357976 0.357933 0.357891 0.358022 0.358153 0.358194 0.358146 0.358098 0.358218 0.358337 0.358369 0.358317 0.358264 0.358372 0.35848 0.358504 0.358447 0.358389 0.358486 0.358583 0.358599 0.358538 0.358476 0.358563 0.358649 0.358658 0.358592 0.358526 0.358603 0.358679 0.358681 0.358611 0.358541 0.358608 0.358674 0.358669 0.358596 0.358522 0.358579 0.358636 0.358624 0.358548 0.358471 0.358519 0.358564 0.358546 0.358469 0.358388 0.358428 0.358462 0.358438 0.35836 0.358275 0.358307 0.35833 0.358301 0.358221 0.358134 0.358158 0.358171 0.358136 0.358055 0.357965 0.357981 0.357985 0.357945 0.357863 0.357769 0.357778 0.357774 0.357728 0.357644 0.357548 0.357549 0.357537 0.357487 0.357401 0.357302 0.357297 0.357277 0.357222 0.357134 0.357033 0.357021 0.356994 0.356935 0.356845 0.356741 0.356723 0.35669 0.356626 0.356535 0.356429 0.356405 0.356365 0.356298 0.356205 0.356097 0.356068 0.356022 0.355952 0.355858 0.355748 0.355714 0.355663 0.35559 0.355494 0.355384 0.355345 0.35529 0.355214 0.355118 0.355007 0.354965 0.354906 0.354829 0.354733 0.354623 0.354577 0.354517 0.354439 0.354344 0.354236 0.354189 0.354127 0.35405 0.353959 0.353854 0.353807 0.353748 0.353674 0.353588 0.353489 0.353445 0.35339 0.353323 0.353244 0.353154 0.353116 0.353069 0.353011 0.352944 0.352867 0.352839 0.352805 0.352762 0.352714 0.352658 0.352649 0.352635 0.352618 0.352598 0.352575 0.352595 0.352618 0.352644 0.352674 0.352707 0.352781 0.352862 0.352952 0.35305 0.353154 0.353303 0.353485 0.353713 0.353986 0.354288 0.354652 0.355013 0.355366 0.355694 0.35601 0.35644 0.356957 0.357866 0.359122 0.360425 0.362085 0.36331 0.363235 0.362309 0.360757 0.359679 0.358372 0.35696 0.355509 0.353857 0.352557 0.351331 0.350108 0.348884 0.347765 0.346906 0.345916 0.344926 0.343935 0.342848 0.341898 0.340796 0.339693 0.338591 0.337368 0.336209 0.334961 0.333713 0.332465 0.331151 0.329879 0.32855 0.327221 0.325892 0.324522 0.323155 0.321744 0.320333 0.318922 0.31748 0.315991 0.31447 0.31295 0.31143 0.309891 0.308344 0.306781 0.305217 0.303654 0.301671 0.301402 0.30113 0.300858 0.300586 0.299984