# vtk DataFile Version 2.0
track0
ASCII
DATASET POLYDATA
POINTS 10947 float
-0.0205 0.001 1e-05
-0.02052 0.00100026 1e-05
-0.02054 0.00100046 1e-05
-0.02056 0.00100062 1e-05
-0.02058 0.00100072 1e-05
-0.0206 0.00100077 1e-05
-0.0205 0.00367778 1e-05
-0.02052 0.0036779 1e-05
-0.02054 0.00367799 1e-05
-0.02056 0.00367806 1e-05
-0.02058 0.00367811 1e-05
-0.0206 0.00367814 1e-05
-0.0205 0.00635556 1e-05
-0.02052 0.00635559 1e-05
-0.02054 0.00635561 1e-05
-0.02056 0.00635563 1e-05
-0.02058 0.00635565 1e-05
-0.0206 0.00635565 1e-05
-0.0205 0.00903333 1e-05
-0.02052 0.00903335 1e-05
-0.02054 0.00903336 1e-05
-0.02056 0.00903337 1e-05
-0.02058 0.00903337 1e-05
-0.0206 0.00903337 1e-05
-0.0205 0.0117111 1e-05
-0.02052 0.0117111 1e-05
-0.02054 0.0117111 1e-05
-0.02056 0.0117111 1e-05
-0.02058 0.0117111 1e-05
-0.0206 0.0117111 1e-05
-0.0205 0.0143889 1e-05
-0.02052 0.0143889 1e-05
-0.02054 0.0143889 1e-05
-0.02056 0.0143889 1e-05
-0.02058 0.0143889 1e-05
-0.0206 0.0143889 1e-05
-0.0205 0.0170667 1e-05
-0.02052 0.0170666 1e-05
-0.02054 0.0170666 1e-05
-0.02056 0.0170666 1e-05
-0.02058 0.0170666 1e-05
-0.0206 0.0170666 1e-05
-0.0205 0.0197444 1e-05
-0.02052 0.0197444 1e-05
-0.02054 0.0197443 1e-05
-0.02056 0.0197443 1e-05
-0.02058 0.0197443 1e-05
-0.0206 0.0197443 1e-05
-0.0205 0.0224222 1e-05
-0.02052 0.0224221 1e-05
-0.02054 0.022422 1e-05
-0.02056 0.0224219 1e-05
-0.02058 0.0224218 1e-05
-0.0206 0.0224218 1e-05
-0.0205 0.0251 1e-05
-0.02052 0.0250982 1e-05
-0.02054 0.0250967 1e-05
-0.0205601 0.0250956 1e-05
-0.0205802 0.0250949 1e-05
-0.0206 0.0250945 1e-05
-0.0205 0.001 1e-05
-0.0202034 0.000996197 1e-05
-0.0199071 0.00098489 1e-05
-0.0196111 0.000966198 1e-05
-0.0193156 0.000939962 1e-05
-0.0190172 0.000906931 1e-05
-0.0187132 0.000873114 1e-05
-0.0184093 0.000839444 1e-05
-0.0181054 0.000805918 1e-05
-0.0178013 0.000773772 1e-05
-0.0174976 0.000743958 1e-05
-0.0173143 0.00072728 1e-05
-0.0171309 0.00071144 1e-05
-0.0169475 0.000696308 1e-05
-0.016764 0.00068181 1e-05
-0.0164832 0.000660565 1e-05
-0.0163943 0.000654282 1e-05
-0.0163054 0.000648141 1e-05
-0.0162164 0.000642137 1e-05
-0.0161275 0.000636271 1e-05
-0.0160387 0.000630535 1e-05
-0.0157586 0.000612661 1e-05
-0.0154784 0.000596027 1e-05
-0.0151981 0.000580435 1e-05
-0.0149178 0.000565833 1e-05
-0.0146381 0.000552038 1e-05
-0.0143692 0.000539154 1e-05
-0.0141002 0.000527193 1e-05
-0.0138312 0.000516089 1e-05
-0.0135621 0.000505607 1e-05
-0.0132934 0.000495407 1e-05
-0.0130353 0.000485862 1e-05
-0.0127771 0.000477021 1e-05
-0.0125188 0.000468842 1e-05
-0.0122606 0.000461036 1e-05
-0.0120025 0.000453401 1e-05
-0.0117547 0.000446225 1e-05
-0.0115068 0.000439582 1e-05
-0.0112589 0.000433386 1e-05
-0.011011 0.00042742 1e-05
-0.0107632 0.000421597 1e-05
-0.0105252 0.000416095 1e-05
-0.0102873 0.000411 1e-05
-0.0100493 0.000406163 1e-05
-0.00981129 0.000401492 1e-05
-0.00957337 0.000396961 1e-05
-0.00934491 0.000392655 1e-05
-0.00911645 0.000388668 1e-05
-0.00888798 0.000384819 1e-05
-0.00865951 0.000381094 1e-05
-0.00843108 0.00037749 1e-05
-0.00821175 0.000374056 1e-05
-0.00799242 0.000370845 1e-05
-0.00777308 0.000367728 1e-05
-0.00755375 0.000364702 1e-05
-0.00733443 0.000361767 1e-05
-0.00712387 0.000358976 1e-05
-0.0069133 0.000356336 1e-05
-0.00670273 0.000353766 1e-05
-0.00649216 0.000351263 1e-05
-0.0062816 0.000348828 1e-05
-0.00607944 0.000346517 1e-05
-0.00587729 0.000344306 1e-05
-0.00567513 0.000342145 1e-05
-0.00547298 0.000340033 1e-05
-0.00527083 0.000337971 1e-05
-0.00507675 0.000336015 1e-05
-0.00488267 0.000334121 1e-05
-0.0046886 0.000332259 1e-05
-0.00449452 0.000330431 1e-05
-0.00430044 0.000328635 1e-05
-0.00411412 0.000326931 1e-05
-0.0039278 0.000325254 1e-05
-0.00374147 0.000323592 1e-05
-0.00355515 0.000321944 1e-05
-0.00336883 0.00032031 1e-05
-0.00333507 0.000320016 1e-05
-0.00330131 0.000319722 1e-05
-0.00326755 0.000319427 1e-05
-0.00323379 0.000319132 1e-05
-0.00320052 0.000318841 1e-05
-0.0030553 0.000317566 1e-05
-0.00291009 0.000316282 1e-05
-0.00276487 0.000314988 1e-05
-0.00261965 0.000313685 1e-05
-0.00247443 0.000312372 1e-05
-0.0023027 0.000310791 1e-05
-0.00213097 0.00030916 1e-05
-0.00195924 0.000307457 1e-05
-0.00178751 0.000305682 1e-05
-0.00161577 0.000303836 1e-05
-0.0014509 0.000301951 1e-05
-0.00128603 0.000299879 1e-05
-0.00112117 0.000297515 1e-05
-0.000956308 0.000294863 1e-05
-0.000791418 0.000291927 1e-05
-0.000633135 0.000288694 1e-05
-0.000474865 0.000284844 1e-05
-0.000316618 0.000280139 1e-05
-0.000158399 0.000274589 1e-05
0 0.000268195 1e-05
0.000105677 0.000263207 1e-05
0.000211297 0.000257109 1e-05
0.000316887 0.000250533 1e-05
0.000422446 0.00024347 1e-05
0.000528387 0.000236118 1e-05
0.000634886 0.000229594 1e-05
0.000741336 0.00022231 1e-05
0.000847761 0.000214674 1e-05
0.000954186 0.000207033 1e-05
0.00106088 0.000199935 1e-05
0.00116821 0.000193642 1e-05
0.00127552 0.000187009 1e-05
0.0013828 0.000180046 1e-05
0.0014901 0.00017323 1e-05
0.00159752 0.000166964 1e-05
0.00170568 0.000161229 1e-05
0.00181383 0.00015533 1e-05
0.00192198 0.000149269 1e-05
0.00203013 0.000143317 1e-05
0.00213833 0.000137755 1e-05
0.00224733 0.000132554 1e-05
0.00235633 0.000127271 1e-05
0.00246532 0.000121918 1e-05
0.00257432 0.000116681 1e-05
0.00268334 0.000111704 1e-05
0.00279319 0.000106981 1e-05
0.00290304 0.000102211 1e-05
0.00301288 9.74547e-05 1e-05
0.00312274 9.27923e-05 1e-05
0.00323259 8.82769e-05 1e-05
0.00334329 8.3946e-05 1e-05
0.00345399 7.95836e-05 1e-05
0.0035647 7.527e-05 1e-05
0.00367541 7.10308e-05 1e-05
0.00378611 6.68724e-05 1e-05
0.00389767 6.28519e-05 1e-05
0.00400924 5.88122e-05 1e-05
0.0041208 5.4832e-05 1e-05
0.00423237 5.09107e-05 1e-05
0.00434393 4.70481e-05 1e-05
0.00445636 4.32714e-05 1e-05
0.00456879 3.94975e-05 1e-05
0.00468123 3.57707e-05 1e-05
0.00479366 3.20907e-05 1e-05
0.00490609 2.84573e-05 1e-05
0.0050194 2.48703e-05 1e-05
0.0051327 2.12985e-05 1e-05
0.00524601 1.77637e-05 1e-05
0.00535932 1.42655e-05 1e-05
0.00547262 1.08039e-05 1e-05
0.00554428 8.64315e-06 1e-05
0.00561593 6.4892e-06 1e-05
0.00568759 4.34638e-06 1e-05
0.00575925 2.21463e-06 1e-05
0.00583408 0 1e-05
0.00587598 -1.23321e-06 1e-05
0.00591787 -2.46276e-06 1e-05
0.00595977 -3.68865e-06 1e-05
0.00600166 -4.9109e-06 1e-05
0.00604356 -6.12949e-06 1e-05
0.00615863 -9.46126e-06 1e-05
0.00627371 -1.27793e-05 1e-05
0.00638878 -1.60773e-05 1e-05
0.00650386 -1.93555e-05 1e-05
0.00661893 -2.26139e-05 1e-05
0.0067349 -2.5861e-05 1e-05
0.00685087 -2.91147e-05 1e-05
0.00696684 -3.2355e-05 1e-05
0.00708281 -3.5582e-05 1e-05
0.00719878 -3.87959e-05 1e-05
0.00731565 -4.19962e-05 1e-05
0.00743252 -4.52188e-05 1e-05
0.00754939 -4.84338e-05 1e-05
0.00766626 -5.16413e-05 1e-05
0.00778313 -5.48413e-05 1e-05
0.00790091 -5.80278e-05 1e-05
0.00801869 -6.12487e-05 1e-05
0.00813647 -6.44674e-05 1e-05
0.00825425 -6.76839e-05 1e-05
0.00837203 -7.08983e-05 1e-05
0.00849073 -7.41003e-05 1e-05
0.00860942 -7.73468e-05 1e-05
0.00872812 -8.05961e-05 1e-05
0.00884681 -8.38482e-05 1e-05
0.00896551 -8.71001e-05 1e-05
0.00908513 -9.03446e-05 1e-05
0.00920475 -9.36355e-05 1e-05
0.00932436 -9.69407e-05 1e-05
0.00944398 -0.000100253 1e-05
0.0095636 -0.000103564 1e-05
0.00968415 -0.000106877 1e-05
0.0098047 -0.000110237 1e-05
0.00992524 -0.000113622 1e-05
0.0100458 -0.000117019 1e-05
0.0101663 -0.000120414 1e-05
0.0102878 -0.000123819 1e-05
0.0104093 -0.000127272 1e-05
0.0105308 -0.000130761 1e-05
0.0106523 -0.000134266 1e-05
0.0107738 -0.000137769 1e-05
0.0108962 -0.00014129 1e-05
0.0110186 -0.000144859 1e-05
0.0111411 -0.000148474 1e-05
0.0112635 -0.000152108 1e-05
0.0113859 -0.000155742 1e-05
0.0115093 -0.000159401 1e-05
0.0116327 -0.000163111 1e-05
0.0117561 -0.00016687 1e-05
0.0118794 -0.000170654 1e-05
0.0120028 -0.000174441 1e-05
0.0121272 -0.000178261 1e-05
0.0122515 -0.000182132 1e-05
0.0123759 -0.000186056 1e-05
0.0125002 -0.00019001 1e-05
0.0126245 -0.000193972 1e-05
0.0127498 -0.000197974 1e-05
0.0128752 -0.00020203 1e-05
0.0130005 -0.000206141 1e-05
0.0131258 -0.000210286 1e-05
0.0132511 -0.000214446 1e-05
0.0133774 -0.000218653 1e-05
0.0135036 -0.000222916 1e-05
0.0136299 -0.000227235 1e-05
0.0137562 -0.000231594 1e-05
0.0138825 -0.000235974 1e-05
0.0140098 -0.000240407 1e-05
0.014137 -0.000244899 1e-05
0.0142643 -0.000249449 1e-05
0.0143915 -0.000254043 1e-05
0.0145188 -0.000258664 1e-05
0.0146471 -0.000263346 1e-05
0.0147753 -0.00026809 1e-05
0.0149036 -0.00027289 1e-05
0.0150318 -0.000277738 1e-05
0.0151601 -0.000282624 1e-05
0.0152893 -0.000287577 1e-05
0.0154186 -0.000292595 1e-05
0.0155478 -0.000297669 1e-05
0.0156771 -0.000302793 1e-05
0.0158063 -0.000307966 1e-05
0.0159366 -0.000313213 1e-05
0.0160668 -0.000318527 1e-05
0.0161971 -0.000323898 1e-05
0.0163273 -0.000329323 1e-05
0.0164576 -0.000334804 1e-05
0.0165889 -0.000340368 1e-05
0.0167201 -0.000346 1e-05
0.0168514 -0.00035169 1e-05
0.0169827 -0.00035744 1e-05
0.0171139 -0.000363248 1e-05
0.0172462 -0.000369152 1e-05
0.0173785 -0.000375124 1e-05
0.0175108 -0.000381158 1e-05
0.0176431 -0.000387255 1e-05
0.0177754 -0.000393415 1e-05
0.0178517 -0.000397003 1e-05
0.0179281 -0.000400615 1e-05
0.0180044 -0.000404248 1e-05
0.0180808 -0.000407904 1e-05
0.0181522 -0.000411345 1e-05
0.0182101 -0.000414152 1e-05
0.0182681 -0.000416971 1e-05
0.0183261 -0.000419803 1e-05
0.018384 -0.000422648 1e-05
0.018442 -0.000425505 1e-05
0.0185763 -0.000432156 1e-05
0.0187107 -0.00043888 1e-05
0.018845 -0.000445674 1e-05
0.0189794 -0.000452538 1e-05
0.0191137 -0.000459474 1e-05
0.0192491 -0.000466528 1e-05
0.0193845 -0.000473665 1e-05
0.0195199 -0.000480875 1e-05
0.0196553 -0.00048816 1e-05
0.0197907 -0.000495521 1e-05
0.0199272 -0.000503003 1e-05
0.0200636 -0.000510577 1e-05
0.0202001 -0.000518228 1e-05
0.0203365 -0.000525958 1e-05
0.020473 -0.000533766 1e-05
0.0206105 -0.000541702 1e-05
0.020748 -0.000549733 1e-05
0.0208855 -0.00055785 1e-05
0.021023 -0.000566049 1e-05
0.0211606 -0.000574328 1e-05
0.0212991 -0.000582743 1e-05
0.0214377 -0.000591256 1e-05
0.0215763 -0.000599864 1e-05
[...]
POINT_DATA 10947
 FIELD attributes 1
U 3 10947 float
0.308535 	-0.00395647 	0 0.307637 	-0.00316517 	0 0.306723 	-0.00237386 	0 0.305795 	-0.00158252 	0 0.304851 	-0.000791174 	0 0.303893 	0 	0
0.989492 	-0.00589567 	0 0.989719 	-0.00471654 	0 0.98994 	-0.0035374 	0 0.990156 	-0.00235825 	0 0.990367 	-0.0011791 	0 0.990573 	0 	0
1.50209 	-0.0024414 	0 1.50222 	-0.001953 	0 1.50236 	-0.0014646 	0 1.5025 	-0.000976211 	0 1.50263 	-0.000487819 	0 1.50276 	0 	0
1.8259 	-0.00125299 	0 1.8258 	-0.00100239 	0 1.82571 	-0.000751794 	0 1.82561 	-0.000501196 	0 1.82551 	-0.000250598 	0 1.82542 	0 	0
1.97015 	-0.000165311 	0 1.9697 	-0.000132249 	0 1.96924 	-9.91868e-05 	0 1.96878 	-6.61245e-05 	0 1.96833 	-3.30623e-05 	0 1.96787 	0 	0
1.94115 	0.000384658 	0 1.94051 	0.000307727 	0 1.93988 	0.000230795 	0 1.93925 	0.000153863 	0 1.93862 	7.69317e-05 	0 1.93799 	0 	0
1.75628 	0.0018042 	0 1.75611 	0.00144336 	0 1.75594 	0.00108252 	0 1.75578 	0.000721681 	0 1.75561 	0.00036084 	0 1.75544 	0 	0
1.38193 	0.00385744 	0 1.382 	0.00308595 	0 1.38207 	0.00231446 	0 1.38214 	0.00154297 	0 1.38221 	0.000771483 	0 1.38227 	0 	0
0.827864 	0.00618183 	0 0.828062 	0.00494546 	0 0.828253 	0.00370908 	0 0.828438 	0.0024727 	0 0.828615 	0.0012363 	0 0.828785 	0 	0
0.109266 	0.009983 	0 0.10925 	0.0079864 	0 0.109154 	0.00598682 	0 0.108977 	0.00398491 	0 0.108721 	0.00198134 	0 0.108387 	0 	0
0.308535 	-0.00395647 	0 0.317428 	-0.0121106 	0 0.324386 	-0.0204837 	0 0.329697 	-0.0292793 	0 0.33297 	-0.0368502 	0 0.333192 	-0.0370737 	0 0.333066 	-0.0368978 	0 0.332975 	-0.036727 	0 0.336382 	-0.0355584 	0 0.342681 	-0.0336414 	0 0.349511 	-0.0318039 	0 0.354347 	-0.0306094 	0 0.358706 	-0.0295937 	0 0.362901 	-0.0286762 	0 0.36725 	-0.0277806 	0 0.374132 	-0.0264427 	0 0.376486 	-0.026008 	0 0.378874 	-0.0255788 	0 0.381293 	-0.025155 	0 0.383466 	-0.0247561 	0 0.383825 	-0.024492 	0 0.392536 	-0.0233027 	0 0.399193 	-0.0222097 	0 0.406091 	-0.0211531 	0 0.410837 	-0.0202627 	0 0.410748 	-0.0196777 	0 0.421698 	-0.0187525 	0 0.432651 	-0.0178586 	0 0.438351 	-0.0170792 	0 0.437222 	-0.016598 	0 0.436183 	-0.0161248 	0 0.447621 	-0.0153263 	0 0.459291 	-0.0145471 	0 0.46394 	-0.0140239 	0 0.461809 	-0.0136642 	0 0.459735 	-0.0133089 	0 0.471435 	-0.0126342 	0 0.481461 	-0.0120337 	0 0.484827 	-0.0116689 	0 0.484023 	-0.0113744 	0 0.480919 	-0.0111192 	0 0.492785 	-0.0105495 	0 0.499281 	-0.0101495 	0 0.50232 	-0.00985862 	0 0.50381 	-0.00959495 	0 0.499737 	-0.00941728 	0 0.51174 	-0.00893154 	0 0.515119 	-0.00867766 	0 0.51785 	-0.0084446 	0 0.520642 	-0.00821367 	0 0.516411 	-0.00808591 	0 0.52674 	-0.00770951 	0 0.529149 	-0.00752107 	0 0.531604 	-0.00733411 	0 0.534106 	-0.00714859 	0 0.531186 	-0.00703993 	0 0.539414 	-0.00676168 	0 0.541594 	-0.0066119 	0 0.543809 	-0.00646313 	0 0.546059 	-0.00631536 	0 0.544341 	-0.00622271 	0 0.550715 	-0.0060235 	0 0.552703 	-0.00590854 	0 0.554718 	-0.00579427 	0 0.55676 	-0.00568068 	0 0.556164 	-0.00560395 	0 0.560895 	-0.00547497 	0 0.562735 	-0.00539687 	0 0.564594 	-0.0053192 	0 0.566471 	-0.00524195 	0 0.566949 	-0.00518537 	0 0.570226 	-0.00513186 	0 0.571981 	-0.0051033 	0 0.573744 	-0.00507493 	0 0.575514 	-0.00504673 	0 0.577074 	-0.00502227 	0 0.577641 	-0.00503107 	0 0.577972 	-0.00504368 	0 0.578303 	-0.00505629 	0 0.578634 	-0.00506889 	0 0.578959 	-0.00508131 	0 0.580328 	-0.00513177 	0 0.581691 	-0.00518208 	0 0.583049 	-0.00523225 	0 0.5844 	-0.00528227 	0 0.577745 	-0.00532069 	0 0.587581 	-0.00557996 	0 0.589482 	-0.00584635 	0 0.591338 	-0.00611141 	0 0.593149 	-0.00637517 	0 0.57589 	-0.00658652 	0 0.597121 	-0.0075045 	0 0.599255 	-0.00859197 	0 0.601206 	-0.00966968 	0 0.602975 	-0.0107377 	0 0.56907 	-0.0116235 	0 0.607035 	-0.0147647 	3.508e-22 0.608813 	-0.0181033 	9.75923e-22 0.610061 	-0.0214 	1.59202e-21 0.610785 	-0.0246554 	2.19918e-21 0.540311 	-0.0255029 	2.7983e-21 0.617756 	-0.0356642 	5.44099e-21 0.616616 	-0.0384024 	5.90053e-21 0.615249 	-0.0411652 	6.37599e-21 0.609396 	-0.0422894 	6.27728e-21 0.583791 	-0.0357668 	3.46691e-21 0.599451 	-0.0410143 	2.37827e-21 0.604825 	-0.0433965 	1.47281e-21 0.600948 	-0.0431498 	7.41449e-22 0.588999 	-0.0391794 	7.25071e-22 0.573963 	-0.0336547 	1.01395e-21 0.583004 	-0.0360407 	1.93593e-21 0.591827 	-0.0384077 	2.85596e-21 0.589739 	-0.0374625 	2.71514e-21 0.58222 	-0.0339655 	1.90566e-21 0.574976 	-0.0304844 	1.09292e-21 0.581206 	-0.0317026 	1.70194e-21 0.587352 	-0.0329147 	2.3116e-21 0.589256 	-0.0324343 	2.02162e-21 0.58523 	-0.0300825 	1.00587e-21 0.581371 	-0.0277408 	-8.66267e-24 0.585728 	-0.0283881 	-9.64642e-22 0.589952 	-0.02897 	-1.86475e-21 0.592479 	-0.0284676 	-1.80251e-21 0.590992 	-0.0269826 	-1.04359e-21 0.588839 	-0.0253184 	-1.52611e-22 0.592205 	-0.0257139 	-1.87125e-22 0.595086 	-0.0257669 	-2.35376e-22 0.597329 	-0.0253521 	-3.02196e-22 0.598125 	-0.0245854 	-4.74278e-22 0.597025 	-0.0233567 	-7.84736e-22 0.5999 	-0.0236398 	-1.19602e-21 0.602171 	-0.0234636 	-1.39431e-21 0.604265 	-0.0231385 	-1.52294e-21 0.6062 	-0.0227716 	-1.61674e-21 0.605744 	-0.0218292 	-1.25098e-21 0.608267 	-0.0220251 	-1.57118e-21 0.610225 	-0.0217703 	-1.37166e-21 0.612201 	-0.0215172 	-1.17236e-21 0.614195 	-0.0212657 	-9.73272e-22 0.614676 	-0.0206477 	-4.26188e-22 0.616845 	-0.0207049 	4.02073e-23 0.618709 	-0.0205078 	2.24835e-22 0.620586 	-0.0203119 	4.09924e-22 0.622477 	-0.0201172 	5.95468e-22 0.623638 	-0.019743 	5.23195e-22 0.625566 	-0.0197198 	6.37591e-22 0.627351 	-0.0195712 	5.90082e-22 0.629146 	-0.0194235 	5.42805e-22 0.630951 	-0.0192767 	4.9576e-22 0.632533 	-0.0190739 	3.89747e-22 0.633651 	-0.0190471 	3.58763e-22 0.634726 	-0.0189807 	3.60032e-22 0.635803 	-0.0189146 	3.61276e-22 0.636883 	-0.0188487 	3.62497e-22 0.638013 	-0.0187802 	3.63747e-22 0.638676 	-0.0187438 	3.59372e-22 0.63934 	-0.0187075 	3.55005e-22 0.640005 	-0.0186713 	3.50645e-22 0.64067 	-0.0186351 	3.46293e-22 0.64128 	-0.018567 	3.66304e-22 0.643127 	-0.0185437 	3.36363e-22 0.644845 	-0.0184811 	3.30336e-22 0.646566 	-0.0184189 	3.24346e-22 0.648292 	-0.0183571 	3.18393e-22 0.649825 	-0.0181945 	3.65845e-22 0.651913 	-0.0182905 	2.06317e-22 0.653559 	-0.0182612 	5.47234e-23 0.655208 	-0.0182322 	-9.68725e-23 0.65686 	-0.0182034 	-2.48471e-22 0.658195 	-0.018024 	-4.08681e-22 0.66046 	-0.0182114 	-7.10345e-22 0.66204 	-0.0182121 	-8.06396e-22 0.663621 	-0.0182129 	-9.02406e-22 0.665204 	-0.0182138 	-9.98376e-22 0.666361 	-0.0180279 	-7.41802e-22 0.66876 	-0.0182888 	-1.03096e-21 0.670277 	-0.0183176 	-1.02899e-21 0.671794 	-0.0183464 	-1.02701e-21 0.673311 	-0.0183753 	-1.02503e-21 0.674307 	-0.0181903 	-5.79987e-22 0.676807 	-0.0185122 	-4.37413e-22 0.678263 	-0.0185677 	-2.88273e-22 0.679718 	-0.0186232 	-1.39128e-22 0.681125 	-0.0186601 	-2.82269e-24 0.682019 	-0.0184994 	-3.75479e-24 0.684421 	-0.0188295 	-2.7466e-24 0.685996 	-0.0189549 	4.92127e-23 0.687391 	-0.019036 	1.12178e-22 0.688632 	-0.0190615 	1.74904e-22 0.689491 	-0.0189474 	2.37052e-22 0.691765 	-0.0192791 	1.69747e-22 0.693471 	-0.0194741 	1.02294e-22 0.694807 	-0.01958 	3.47482e-23 0.695892 	-0.0195997 	0 0.696714 	-0.0195283 	0 0.69887 	-0.0198641 	0 0.700687 	-0.0201208 	2.60073e-23 0.701964 	-0.0202507 	9.39148e-23 0.702899 	-0.0202685 	1.58366e-22 0.703683 	-0.0202361 	2.21279e-22 0.705728 	-0.0205781 	7.23134e-22 0.707638 	-0.0208903 	1.16051e-21 0.708857 	-0.0210434 	1.24753e-21 0.709649 	-0.0210626 	8.5417e-22 0.710393 	-0.021067 	4.07299e-22 0.712332 	-0.0214171 	8.33313e-22 0.714263 	-0.0217664 	1.25922e-21 0.715432 	-0.0219406 	1.19164e-21 0.716136 	-0.0219798 	6.88676e-22 0.716839 	-0.022019 	1.85662e-22 0.718677 	-0.0223789 	1.16586e-22 0.720507 	-0.022738 	4.74606e-23 0.721696 	-0.0229461 	0 0.722357 	-0.0230185 	0 0.723017 	-0.0230908 	0 0.724758 	-0.0234617 	0 0.72649 	-0.0238318 	0 0.727689 	-0.0240725 	-1.14898e-22 0.728306 	-0.0241767 	-3.34151e-22 0.728921 	-0.0242807 	-5.53443e-22 0.730567 	-0.0246635 	-8.91001e-22 0.732205 	-0.0250455 	-1.22861e-21 0.733406 	-0.0253182 	-1.10062e-21 0.733977 	-0.0254529 	-5.54003e-22 0.734545 	-0.0255875 	-7.31256e-24 0.736098 	-0.0259832 	5.39515e-22 0.73762 	-0.0263723 	1.06221e-21 0.738765 	-0.0266664 	1.18894e-21 0.739363 	-0.0268465 	9.17494e-22 0.739882 	-0.0270105 	5.90639e-22 0.741343 	-0.0274198 	3.81451e-22 0.742676 	-0.0277986 	1.95005e-22 0.743742 	-0.0281131 	5.7296e-23 0.744458 	-0.0283563 	-3.3445e-23 0.744926 	-0.0285488 	-9.07266e-23 0.746297 	-0.028972 	-2.63949e-23 0.747442 	-0.029343 	0 0.748429 	-0.0296776 	0 0.749256 	-0.0299805 	-1.36595e-25 0.74967 	-0.0302003 	-6.3727e-25 0.750951 	-0.0306377 	-7.12438e-26 0.751911 	-0.0310032 	0 0.752818 	-0.0313577 	0 0.753718 	-0.0317114 	0 0.754106 	-0.0319639 	5.3515e-23 0.755238 	-0.0324027 	0 0.756073 	-0.0327776 	0 0.7569 	-0.0331518 	0 0.75772 	-0.0335253 	0 0.758228 	-0.0338384 	0 0.759166 	-0.0342704 	0 0.759921 	-0.0346647 	0 0.760667 	-0.0350582 	0 0.761405 	-0.035451 	0 0.762027 	-0.035822 	-1.2161e-23 0.762481 	-0.0360719 	0 0.762868 	-0.0363087 	0 0.763253 	-0.0365453 	0 0.763635 	-0.0367816 	0 0.76399 	-0.0370025 	0 0.764303 	-0.0371832 	0 0.764614 	-0.0373638 	0 0.764924 	-0.0375443 	0 0.765233 	-0.0377246 	0 0.765484 	-0.0378922 	0 0.766232 	-0.0383469 	0 0.766885 	-0.0387824 	0 0.767531 	-0.0392171 	0 0.768168 	-0.0396511 	0 0.76861 	-0.0400443 	0 0.769476 	-0.040558 	0 0.770048 	-0.0410113 	0 0.770612 	-0.0414639 	0 0.771167 	-0.0419157 	0 0.771392 	-0.0423009 	0 0.772376 	-0.0428716 	0 0.772866 	-0.043342 	0 0.773347 	-0.0438118 	0 0.77375 	-0.0442671 	0 0.77382 	-0.0446587 	0 0.774734 	-0.0452462 	0 0.775332 	-0.0457716 	7.39301e-23 0.775729 	-0.0462578 	1.94152e-22 0.775899 	-0.0467026 	3.50466e-22 0.775889 	-0.0471146 	5.35516e-22 0.776705 	-0.0477132 	1.88665e-21 0.777438 	-0.0482967 	3.0529e-21 0.77775 	-0.0487986 	3.16889e-21 0.777682 	-0.0492336 	1.87052e-21 0.777588 	-0.0496649 	5.04732e-22 0.778307 	-0.0502741 	3.07127e-22 0.779014 	-0.0508823 	1.09452e-22 0.77926 	-0.0514061 	0 0.779091 	-0.0518561 	0 0.778912 	-0.0523055 	0 0.779532 	-0.0529247 	0 0.78014 	-0.0535429 	0 0.780373 	-0.0540989 	-5.30184e-23 0.780117 	-0.0545658 	-1.20114e-22 0.779853 	-0.0550322 	-1.87294e-22 0.780373 	-0.0556607 	-6.07517e-22 0.780783 	-0.0562726 	-9.82099e-22 0.780901 	-0.0568393 	-1.22746e-21 0.780755 	-0.0573583 	-1.26375e-21 0.780403 	-0.0578404 	-1.13802e-21 0.780823 	-0.0584774 	-8.54984e-22 0.780953 	-0.0590712 	-7.82323e-22 0.780972 	-0.059649 	-7.85524e-22 0.78098 	-0.0602258 	-7.89372e-22 0.780555 	-0.0607253 	-1.06476e-21 0.780787 	-0.0613571 	-8.37057e-22 0.780719 	-0.0619457 	-6.09088e-22 0.780638 	-0.0625333 	-3.81433e-22 0.780546 	-0.06312 	-1.54093e-22 0.780304 	-0.0636815 	0 0.780323 	-0.0639827 	0 0.780245 	-0.0642702 	0 0.780163 	-0.0645576 	0 0.780079 	-0.0648447 	0 0.779997 	-0.0651177 	0 0.779946 	-0.0654326 	0 0.779892 	-0.0657473 	0 0.779835 	-0.0660617 	0 0.779775 	-0.0663759 	0 0.779613 	-0.0666732 	0 0.779585 	-0.0673126 	1.66228e-22 0.779405 	-0.0679228 	4.14364e-22 0.779214 	-0.068532 	6.6216e-22 0.779011 	-0.0691404 	9.09617e-22 0.778504 	-0.0697004 	1.25205e-21 0.778649 	-0.0704 	3.54186e-21 0.77837 	-0.0710165 	3.95372e-21 0.778079 	-0.0716321 	4.36788e-21 0.777656 	-0.0722278 	3.85501e-21 0.776968 	-0.0727829 	1.3921e-21 0.777007 	-0.0734849 	2.75963e-21 0.776913 	-0.0741624 	3.73511e-21 0.776522 	-0.0747831 	3.78333e-21 0.775788 	-0.0753522 	2.17739e-21 0.775 	-0.0759142 	3.52504e-22 0.77493 	-0.076617 	1.10086e-21 0.774847 	-0.0773189 	1.84818e-21 0.774363 	-0.0779525 	1.79977e-21 0.773486 	-0.0785202 	9.80477e-22 0.772596 	-0.0790876 	1.60136e-22 0.772417 	-0.0797901 	1.37037e-23 0.772197 	-0.0804877 	-1.15494e-22 0.771621 	-0.0811341 	-2.1883e-23 0.770744 	-0.081725 	-1.17082e-22 0.769752 	-0.0822962 	-2.79708e-22 0.769463 	-0.0829971 	-1.61067e-21 0.7689 	-0.0836599 	-1.84786e-21 0.768214 	-0.0843059 	-1.61891e-21 0.767514 	-0.0849509 	-1.38786e-21 0.766464 	-0.085533 	-1.13909e-24 0.76595 	-0.0861993 	9.15747e-22 0.765184 	-0.0868311 	7.84494e-22 0.764404 	-0.087462 	6.5138e-22 0.76361 	-0.088092 	5.164e-22 0.762873 	-0.0886666 	3.91398e-22 0.762846 	-0.0886911 	3.85565e-22 0.762818 	-0.0887157 	3.79729e-22 0.762791 	-0.0887403 	3.7389e-22 0.762763 	-0.0887649 	3.68048e-22 0.762727 	-0.088788 	4.04757e-22 0.761972 	-0.0894405 	3.8034e-22 0.761191 	-0.0900896 	3.58557e-22 0.760397 	-0.0907378 	3.36557e-22 0.75959 	-0.0913852 	3.14341e-22 0.758521 	-0.0919922 	3.55307e-22 0.757986 	-0.0927077 	2.63198e-22 0.757098 	-0.0933523 	2.27448e-22 0.756196 	-0.093996 	1.91488e-22 0.755154 	-0.0946185 	1.25385e-22 0.753857 	-0.0952025 	2.79012e-24 0.753238 	-0.0959157 	-1.20745e-21 0.752556 	-0.0966182 	-2.27022e-21 0.75153 	-0.0972534 	-2.30774e-21 0.75014 	-0.0978322 	-8.56094e-22 0.748734 	-0.098411 	5.96955e-22 0.748001 	-0.0991145 	1.56067e-21 0.747252 	-0.0998171 	2.52394e-21 0.746166 	-0.100466 	2.75981e-21 0.744667 	-0.101038 	2.12475e-21 0.743152 	-0.10161 	1.4889e-21 0.742303 	-0.102302 	3.11314e-21 0.741255 	-0.102965 	3.42791e-21 0.740012 	-0.103598 	2.47148e-21 0.738736 	-0.104227 	1.44126e-21 0.737111 	-0.10479 	-9.32095e-22 0.736136 	-0.105413 	-1.67944e-21 0.734886 	-0.105993 	-1.75233e-21 0.733621 	-0.106572 	-1.82478e-21 0.732343 	-0.10715 	-1.89679e-21 0.731146 	-0.107685 	-1.96303e-21 0.731043 	-0.107737 	-1.997e-21 0.730939 	-0.107788 	-2.03099e-21 0.730835 	-0.10784 	-2.06499e-21 0.730731 	-0.107891 	-2.09901e-21 0.730605 	-0.107939 	-2.01156e-21 0.729325 	-0.108564 	-1.6854e-21 0.728 	-0.109182 	-1.39642e-21 0.726661 	-0.1098 	-1.10656e-21 0.725306 	-0.110416 	-8.15839e-22 0.723642 	-0.110979 	-8.15076e-22 0.722558 	-0.111657 	-1.60931e-21 0.721189 	-0.112275 	-1.84617e-21 0.719738 	-0.112878 	-1.94536e-21 0.718056 	-0.11344 	-1.4906e-21 0.716217 	-0.113977 	-6.81252e-22 0.715016 	-0.114637 	-1.18167e-21 0.7138 	-0.115296 	-1.68163e-21 0.712215 	-0.115882 	-1.63712e-21 0.710283 	-0.116403 	-1.15835e-21 0.708331 	-0.116924 	-6.79327e-22 0.707014 	-0.117564 	-5.40254e-22 0.705589 	-0.118187 	-4.60168e-22 0.703887 	-0.11876 	-5.49567e-22 0.702053 	-0.119309 	-6.98915e-22 0.699989 	-0.119812 	-9.58994e-22 0.698513 	-0.120424 	-1.30282e-21 0.69671 	-0.120978 	-8.92271e-22 0.69489 	-0.12153 	-4.81211e-22 0.693052 	-0.122082 	-6.96375e-23 0.691193 	-0.122634 	3.43452e-22 0.691193 	-0.122634 	3.43439e-22 0.691192 	-0.122634 	3.43513e-22 0.691191 	-0.122635 	3.43587e-22 0.69119 	-0.122635 	3.4366e-22 0.691189 	-0.122635 	3.43734e-22 0.689437 	-0.123179 	6.37328e-22 0.687669 	-0.123722 	9.32188e-22 0.685885 	-0.124264 	1.22832e-21 0.684084 	-0.124806 	1.52574e-21 0.681977 	-0.125284 	7.35152e-22 0.680422 	-0.125879 	5.10332e-22 0.678636 	-0.126422 	3.09902e-22 0.676739 	-0.126942 	1.20076e-22 0.674582 	-0.127407 	1.80207e-22 0.672311 	-0.127851 	3.34413e-22 0.670639 	-0.12842 	2.04029e-22 0.66895 	-0.128988 	7.37643e-23 0.666944 	-0.129487 	2.20377e-23 0.664583 	-0.129906 	5.71532e-23 0.662199 	-0.130326 	9.23935e-23 0.66041 	-0.130868 	7.03301e-23 0.658419 	-0.131368 	4.31705e-23 0.656262 	-0.131832 	1.19244e-23 0.654086 	-0.132295 	-1.92775e-23 0.651648 	-0.132703 	-1.41133e-23 0.650665 	-0.132966 	1.72753e-22 0.649513 	-0.13319 	1.65531e-22 0.648356 	-0.133414 	1.58148e-22 0.647194 	-0.133638 	1.50604e-22 0.646068 	-0.133853 	1.4317e-22 0.645027 	-0.134074 	1.82313e-22 0.643982 	-0.134295 	2.21465e-22 0.642932 	-0.134515 	2.60627e-22 0.641879 	-0.134736 	2.99798e-22 0.64068 	-0.134917 	2.64941e-22 0.638699 	-0.135395 	2.06818e-22 0.636496 	-0.135817 	1.38364e-22 0.634275 	-0.136239 	6.98058e-23 0.631916 	-0.136625 	3.29259e-23 0.629346 	-0.136959 	4.52572e-23 0.627329 	-0.137426 	1.30955e-22 0.625294 	-0.137893 	2.16609e-22 0.622927 	-0.138273 	2.14213e-22 0.62027 	-0.138576 	1.2329e-22 0.617587 	-0.138879 	3.21007e-23 0.615455 	-0.139315 	1.46252e-23 0.613197 	-0.139718 	1.84757e-24 0.610722 	-0.140062 	-2.16679e-24 0.608207 	-0.140401 	-9.72979e-24 0.605411 	-0.140673 	-6.28572e-23 0.604026 	-0.140921 	-3.48001e-22 0.602452 	-0.141115 	-2.68522e-22 0.600865 	-0.141307 	-1.77499e-22 0.599271 	-0.141498 	-8.61167e-23 0.597734 	-0.141682 	1.92628e-24 0.596785 	-0.141809 	5.58292e-23 0.595834 	-0.141936 	1.09864e-22 0.59488 	-0.142063 	1.64031e-22 0.593923 	-0.14219 	2.1833e-22 0.592858 	-0.142279 	-4.86818e-24 0.590535 	-0.142625 	-5.48836e-22 0.588029 	-0.14292 	-7.2781e-22 0.585505 	-0.143214 	-9.08071e-22 0.582858 	-0.143468 	-8.14017e-22 0.580016 	-0.143661 	-2.81642e-22 0.577673 	-0.143998 	-1.077e-21 0.575309 	-0.144335 	-1.87247e-21 0.572653 	-0.14458 	-1.88384e-21 0.56973 	-0.144738 	-1.08692e-21 0.566777 	-0.144895 	-2.87518e-22 0.564319 	-0.145196 	-2.34889e-22 0.561715 	-0.145448 	-1.74332e-22 0.558948 	-0.145645 	-1.04881e-22 0.556161 	-0.145841 	-3.56644e-23 0.553147 	-0.145978 	-1.23209e-22 0.5521 	-0.146086 	-5.8794e-22 0.550951 	-0.146156 	-4.88503e-22 0.549788 	-0.146221 	-3.28102e-22 0.548622 	-0.146286 	-1.67303e-22 0.547482 	-0.146349 	-1.02368e-23 0.545878 	-0.146456 	2.08374e-22 0.544267 	-0.146562 	4.27759e-22 0.542649 	-0.146668 	6.47924e-22 0.541018 	-0.14677 	8.26905e-22 0.539249 	-0.146807 	1.12882e-22 0.536713 	-0.147031 	-1.55359e-21 0.53395 	-0.147181 	-1.94295e-21 0.531149 	-0.147322 	-2.22183e-21 0.528175 	-0.147383 	-1.28588e-21 0.525098 	-0.147408 	2.0535e-22 0.522451 	-0.147593 	1.79388e-21 0.519783 	-0.147777 	3.38092e-21 0.516919 	-0.147868 	3.20535e-21 0.513768 	-0.147856 	1.32836e-21 0.51058 	-0.147841 	-5.71254e-22 0.507903 	-0.147983 	-7.13814e-22 0.505019 	-0.148024 	-1.44437e-21 0.502086 	-0.14805 	-2.26493e-21 0.499133 	-0.148073 	-3.08688e-21 0.496334 	-0.148095 	-3.86196e-21 0.49621 	-0.148096 	-3.89635e-21 0.496087 	-0.148098 	-3.93074e-21 0.495963 	-0.1481 	-3.96513e-21 0.495839 	-0.148102 	-3.99239e-21 0.495709 	-0.148098 	-3.94713e-21 0.492826 	-0.148116 	-3.25519e-21 0.489908 	-0.148126 	-2.61029e-21 0.486968 	-0.148134 	-1.96321e-21 0.483984 	-0.148122 	-1.4734e-21 0.480822 	-0.147997 	-1.89793e-21 0.478009 	-0.148052 	-1.20246e-21 0.475174 	-0.148106 	-5.06285e-22 0.472098 	-0.148046 	-1.10776e-22 0.468864 	-0.147883 	-5.24747e-22 0.465591 	-0.147718 	-9.41377e-22 0.462666 	-0.147732 	-3.29619e-21 0.459646 	-0.147687 	-4.3457e-21 0.45651 	-0.147565 	-3.73281e-21 0.453351 	-0.147443 	-3.1165e-21 0.450018 	-0.14726 	-1.22086e-21 0.449072 	-0.147252 	-4.46149e-22 0.448083 	-0.147211 	-3.33641e-22 0.447081 	-0.147161 	-3.90471e-22 0.446077 	-0.147111 	-4.4782e-22 0.445089 	-0.147062 	-5.04609e-22 0.442992 	-0.146967 	-6.05189e-22 0.440885 	-0.146872 	-7.08139e-22 0.438767 	-0.146776 	-8.1349e-22 0.43663 	-0.146665 	-6.97968e-22 0.434416 	-0.146467 	7.54253e-22 0.431463 	-0.14638 	3.61542e-21 0.428406 	-0.146246 	5.74253e-21 0.425252 	-0.146068 	7.1962e-21 0.421981 	-0.145749 	6.5716e-21 0.418665 	-0.145421 	5.85089e-21 0.415603 	-0.145292 	1.25884e-20 0.4125 	-0.145139 	1.79563e-20 0.40929 	-0.14486 	1.59384e-20 0.406024 	-0.144561 	1.29701e-20 0.402592 	-0.144191 	6.55786e-21 0.401008 	-0.144107 	4.82623e-21 0.399379 	-0.143966 	3.63629e-21 0.397733 	-0.143807 	2.61889e-21 0.39608 	-0.143647 	1.60197e-21 0.394471 	-0.143492 	6.15338e-22 0.392889 	-0.143343 	-4.88314e-22 0.391303 	-0.143194 	-1.59169e-21 0.38971 	-0.143045 	-2.69479e-21 0.38814 	-0.142883 	-3.54926e-21 0.386685 	-0.142667 	-3.29984e-21 0.383454 	-0.142413 	4.16691e-21 0.380243 	-0.142092 	8.46313e-21 0.377017 	-0.141759 	1.22057e-20 0.374009 	-0.141321 	9.07141e-21 0.371019 	-0.140852 	4.22103e-21 0.367689 	-0.140557 	6.34007e-21 0.364345 	-0.140254 	8.26381e-21 0.36126 	-0.139825 	5.54626e-21 0.358173 	-0.139365 	2.57346e-21 0.355067 	-0.138855 	-7.93601e-22 0.353199 	-0.138672 	-1.61717e-21 0.351438 	-0.138438 	-1.4632e-21 0.349714 	-0.138184 	-9.30866e-22 0.347984 	-0.137929 	-3.98775e-22 0.346302 	-0.137681 	1.16389e-22 0.34477 	-0.137464 	-7.4228e-23 0.343233 	-0.137245 	-2.66681e-22 0.34169 	-0.137026 	-4.60993e-22 0.340223 	-0.136792 	-4.73863e-23 0.338899 	-0.136527 	1.54637e-21 0.335389 	-0.136071 	-2.86775e-21 0.331941 	-0.13558 	-5.4705e-21 0.328515 	-0.135068 	-7.08661e-2