/*--------------------------------*- C++ -*----------------------------------*\
  =========                 |
  \\      /  F ield         | OpenFOAM: The Open Source CFD Toolbox
   \\    /   O peration     | Website:  https://openfoam.org
    \\  /    A nd           | Version:  7
     \\/     M anipulation  |
\*---------------------------------------------------------------------------*/
FoamFile
{
    version     2.0;
    format      ascii;
    class       volScalarField;
    location    "0.6";
    object      alpha.water;
}
// * * * * * * * * * * * * * * * * * * * * * * * * * * * * * * * * * * * * * //

dimensions      [0 0 0 0 0 0 0];

internalField   nonuniform List<scalar> 
6000
(
0
0
0
0
0
0
0
0
0
0
0
0
0
0
0
0
0
0
0
0
0
0
0
0
0
0
0
0
0
0
0
0
0
0
0
0
0
0
0
0
0
0
0
0
0
0
0
0
0
0
0
0
0
0
0
0
0
0
0
0
0
0
0
0
0
0
0
0
0
0
0
0
0
0
0
0
0
0
0
0
0
0
0
0
0
0
0
0
0
0
0
0
0
0
0
0
0
0
0
0
0
0
0
0
0
0
0
0
0
0
0
0
0
0
0
0
0
0
0
0
0
0
0
0
0
0
0
0
0
0
0
0
0
0
0
0
0
0
0
0
0
0
0
0
0
0
0
0
0
0
0
0
0
0
0
0
0
0
0
0
0
0
0
0
0
0
0
0
0
0
0
0
0
0
0
0
0
0
0
0
0
0
0
0
0
0
0
0
0
0
0
0
0
0
0
0
0
0
0
0
0
0
0
0
0
0
0
0
0
0
0
0
0
0
0
0
0
0
0
0
0
0
0
0
0
0
0
0
0
0
0
0
0
0
0
0
0
0
0
0
0
0
0
0
0
0
0
0
0
0
0
0
0
0
0
0
0
0
0
0
0
0
0
0
0
0
0
0
0
0
0
0
0
0
0
0
0
0
0
0
0
0
0
0
0
0
0
0
0
0
0
0
0
0
0
0
0
0
0
0
0
0
0
0
0
0
0
0
0
0
0
0
0
0
0
0
0
9.8112735035776e-43
3.2910988254517e-42
1.1932848323556e-41
4.0644054758214e-41
1.457101093895e-40
1.2200327755996e-39
4.6123039859865e-39
1.5249000479268e-38
2.9018584940321e-38
3.0240902157458e-38
2.3763367718619e-38
1.0366754196889e-38
1.9958626581239e-39
2.300900747506e-40
1.6434106727708e-41
2.5682467526172e-42
6.9643064306309e-43
7.4256779443925e-44
1.9043675996139e-44
2.3076220306018e-45
4.0419569020947e-46
7.8396622005338e-47
1.4790282928651e-47
4.9888051536983e-48
9.290540427765e-49
1.0873201094491e-49
1.8157628500086e-50
4.8961798706028e-51
9.9759972656852e-52
2.0930649003375e-52
2.4976163576277e-53
9.69176140318e-54
2.1534613281677e-54
2.3220172646586e-55
5.1347346898781e-56
6.6095765260542e-57
1.9445071911746e-57
2.4951327687583e-58
4.4955056169937e-59
1.434349858235e-59
1.7192626929406e-60
5.2352387692297e-61
6.3648779403263e-62
1.1392429761317e-62
3.7188739213245e-63
4.3895706862428e-64
1.3005898935913e-64
1.6170037560888e-65
2.8989635710194e-66
9.7032539765189e-67
1.1251389400427e-67
3.4390735429719e-68
4.1734320641315e-69
7.4103244392962e-70
3.1483303626326e-70
3.8760352602954e-71
1.0874173537905e-71
1.1630571361929e-72
2.0338125088978e-73
6.7251179633676e-74
8.0253945694588e-75
9.4642422484798e-76
2.6159257577058e-76
5.0256306920095e-77
1.3394776749182e-77
4.7236662681601e-78
1.1888038729041e-78
2.6583664293435e-79
5.0560196036874e-80
3.9495636741324e-81
6.4313352158923e-82
2.8100533659446e-82
7.0727124636322e-83
5.7579959399297e-84
1.5651749558667e-84
5.0730647348882e-85
1.2759097029316e-85
2.8398110080055e-86
6.2793700762947e-87
4.551672978934e-88
1.7452385809668e-88
3.9414774507072e-89
1.6279243383574e-89
0
0
0
0
0
0
0
0
0
5.330575645487e-31
0
0
1.3334536866752e-31
2.1893456807696e-48
-5.4738221262688e-49
0
-1.710569414459e-50
5.8083902050702e-34
3.842671522567e-42
1.0530697178593e-41
3.6213988773476e-41
1.2890967324057e-40
4.0922719554601e-36
5.1506095595977e-39
1.1828756631406e-38
1.4604626923483e-38
4.2386134583402e-39
2.0051550290496e-39
1.1298768196755e-39
9.5985334734932e-40
1.0137232798861e-39
3.3820367646643e-41
1.3772289720686e-41
2.9186182485655e-41
4.9447229876857e-43
1.3148858614902e-41
1.7669907022634e-44
3.3110691770555e-45
9.7286813689738e-45
1.1798659980335e-46
3.157189173598e-47
4.8203195032679e-46
8.3545267488994e-49
1.5402845252245e-49
3.8513213666604e-49
1.3682280021887e-49
1.4691933472958e-49
1.9924801329753e-52
1.3455614681731e-49
8.9094307529633e-51
2.4876586361916e-54
4.5117825676777e-54
5.3710548022056e-56
2.341059410002e-52
1.6399966816117e-56
3.6776344557992e-58
2.7806469154381e-54
1.3511862672106e-59
2.1990599405004e-55
4.9500169795951e-61
3.6841373938045e-60
3.3396079971397e-57
3.4209131098881e-63
2.6122036013169e-58
1.252883543069e-64
2.3490027914029e-65
3.5933500490723e-60
8.7013783631654e-67
2.4904916427776e-61
3.2021745758083e-68
4.1200138925495e-66
8.5862020951772e-63
5.3455827545455e-67
3.8980457579197e-64
8.6579208231513e-72
1.6206415839743e-72
1.099129925807e-65
6.9551428378802e-70
1.1071628052539e-74
2.2997820995686e-71
4.002926321061e-76
2.2710130742515e-70
1.3018674944664e-69
1.0492246381253e-70
1.2200174795342e-71
3.1922749707342e-71
2.0198487216911e-75
5.0346928536848e-81
2.6673361504404e-74
1.2520197404208e-74
4.0143385280829e-83
1.5762641315226e-76
7.7758413993013e-76
5.3162290537995e-77
6.1238516870921e-78
1.6122416841689e-77
1.0083179933356e-81
1.2988678253688e-78
4.333355530999e-80
5.5081768343662e-80
0
0
0
0
0
0
0
4.2974617136967e-15
1.0129571386861e-13
1.0183921918157e-12
5.3643182111625e-12
2.2031698381542e-11
1.539960910414e-10
1.7412367960301e-09
9.3157901847781e-09
2.5627404847041e-08
5.5234700734203e-08
9.0615669284167e-08
1.0035263529099e-07
9.4597030042931e-08
7.5991146589708e-08
4.4890622882635e-08
1.5345901830586e-08
2.1171227539628e-09
5.5786932299402e-11
6.3124085484219e-14
6.8893755207517e-13
1.0350936441272e-12
7.4975784394102e-13
3.3064346923536e-13
1.2285212562809e-13
4.3615812572234e-14
1.526018416367e-14
5.1553631504381e-15
1.6049538216514e-15
4.4521340406869e-16
1.113051217885e-16
2.6423300838257e-17
6.2576488610666e-18
1.4984318365396e-18
3.5898459022205e-19
8.5155270959073e-20
1.9956857126361e-20
4.6310546804062e-21
1.0664501368351e-21
2.4396423751523e-22
5.5464902030545e-23
1.2536205386196e-23
2.817994621652e-24
6.3024333046291e-25
1.4028745968017e-25
3.1088614953982e-26
6.8607417522438e-27
1.5081067863289e-27
3.3027751509301e-28
7.207719434034e-29
1.5677154318036e-29
3.3990614984829e-30
7.3474955221582e-31
1.5836859228198e-31
3.4041169232801e-32
7.2978962653839e-33
1.5606197493763e-33
3.3292601730036e-34
7.0858439720627e-35
1.5047622169809e-35
3.1886976113611e-36
6.7431433966428e-37
1.4231392558402e-37
2.9977732070424e-38
6.3029692729336e-39
1.3228594275055e-39
2.7715955221043e-40
5.7971939556751e-41
1.2105996321822e-41
2.5240600922158e-42
5.2545545931848e-43
1.0922669442411e-43
2.2672373246025e-44
4.6995712987531e-45
9.728133016008e-46
2.0110687051972e-46
4.1520817167284e-47
8.5617235020439e-48
1.763302939481e-48
3.6272425362491e-49
7.4528628493052e-50
1.5296037413692e-50
3.135854633924e-51
6.4219291910154e-52
1.313768027537e-52
2.6848869626837e-53
5.4814772717125e-54
1.1180039735182e-54
2.2780947002151e-55
4.6377357602629e-56
9.4281395077566e-57
1.93063150297e-57
3.5141753251131e-58
1.2594539509988e-58
0
0
0
0
0
0
4.0308222004371e-15
1.3221821168234e-13
2.0137042807611e-12
1.9137035868724e-11
1.1082540980225e-10
3.611548908045e-10
1.1552720974767e-09
8.3775683269488e-09
1.0560540154986e-07
7.7836399440278e-07
2.0770833940709e-06
3.4208933633859e-06
3.7607212296775e-06
3.5455860112313e-06
2.8540939650849e-06
1.6936546934235e-06
5.8715412770668e-07
8.4705622715601e-08
2.8773054670776e-09
1.2974423372077e-10
3.2255129590794e-11
6.4394665457725e-12
4.972991680905e-12
4.0770500087052e-12
2.2373698316679e-12
9.5852827131651e-13
3.802640217475e-13
1.4615101719177e-13
5.2973520115067e-14
1.7243378224532e-14
4.8987147336746e-15
1.2416642115039e-15
2.9880014493034e-16
7.1892624638157e-17
1.7485378133392e-17
4.2481606752171e-18
1.0209073079623e-18
2.4228887127306e-19
5.6913941518521e-20
1.3260204813831e-20
3.0674241446952e-21
7.0485923440875e-22
1.6095873303735e-22
3.6542432260367e-23
8.2514374695892e-24
1.8538273049423e-24
4.1452950389003e-25
9.2280965261824e-26
2.045743640207e-26
4.5172501532709e-27
9.9374093791086e-28
2.1783742646e-28
4.7591472115026e-29
1.0364154116281e-29
2.2501519154e-30
4.8710575459636e-31
1.0515352922841e-31
2.26394223799e-32
4.8617860048844e-33
1.0415022022142e-33
2.2258725352487e-34
4.7463015929631e-35
1.0098620621237e-35
2.1441490477194e-36
4.543248820419e-37
9.6078734418149e-38
2.0279911458325e-38
4.272775705132e-39
8.986387695784e-40
1.8867554359113e-40
3.9548006236148e-41
8.2762585671853e-42
1.7292780681659e-42
3.6077528589226e-43
7.5156885676612e-44
1.5634313733843e-44
3.2477612240178e-45
6.7375341588773e-46
1.3958705785779e-46
2.8882288203683e-47
5.9686299520571e-48
1.2319357608372e-48
2.5397150450975e-49
5.2297156510897e-50
1.0756709573821e-50
2.210043093311e-51
4.5357923912193e-52
9.2992416993954e-53
1.9045546451124e-53
3.8968524424118e-54
7.9616430229819e-55
1.6377930630409e-55
3.0072576288328e-56
1.0723541275362e-56
0
0
0
0
0
1.6972121817534e-15
7.8491873688328e-14
1.4130881110286e-12
1.4864723700698e-11
1.1271780403903e-10
7.3529231632882e-10
3.8636802116953e-09
1.3706134174798e-08
5.0987643244409e-08
3.4179068551554e-07
3.3000907861236e-06
2.8176887611762e-05
7.1274269203489e-05
8.1133566411029e-05
7.6124388693241e-05
6.1317676473807e-05
3.7367624357232e-05
1.3713590674301e-05
2.2440240356577e-06
1.0115413920681e-07
4.9686611409361e-09
1.1548194471661e-09
2.3577933528622e-10
4.9946672680047e-11
1.184626627868e-11
8.5484054045926e-12
6.3686062547706e-12
3.4636738191974e-12
1.6356926892911e-12
7.1221107152629e-13
2.7683710413089e-13
9.2602120043327e-14
2.6569968923845e-14
6.8288118481196e-15
1.6799890863178e-15
4.1326183158758e-16
1.02260053059e-16
2.5190827437194e-17
6.1325948986426e-18
1.4741971337497e-18
3.5062298697603e-19
8.2659996705941e-20
1.9336054813706e-20
4.4907307425279e-21
1.0359946228133e-21
2.3751796272186e-22
5.4140964535723e-23
1.2274866527182e-23
2.7689784500079e-24
6.2168285034992e-25
1.389587235065e-25
3.0930001815608e-26
6.8572626590996e-27
1.5145688073041e-27
3.3333239566657e-28
7.3112626204659e-29
1.5984665889793e-29
3.4839797319141e-30
7.5712619516477e-31
1.6407291529648e-31
3.5459528119933e-32
7.6437130728058e-33
1.6435991279642e-33
3.5257324943444e-34
7.5457763190869e-35
1.6113740878861e-35
3.4336913870261e-36
7.3018197065373e-37
1.5496605513685e-37
3.2825142670275e-38
6.940145910445e-39
1.4646990868074e-39
3.0858200093186e-40
6.4902051097328e-41
1.3628059321938e-41
2.8570536323712e-42
5.9804183081799e-43
1.2499498351659e-43
2.608672930907e-44
5.4366334528321e-45
1.1314631593959e-45
2.351616872805e-46
4.8811669262427e-47
1.0118734692001e-47
2.0950197607835e-48
4.3323420872254e-49
8.9483479506481e-50
1.8461236103917e-50
3.8044189333439e-51
7.8313417565765e-52
1.6103768573527e-52
3.306497534136e-53
6.8329293266928e-54
1.2650734517008e-54
4.4928881220447e-55
0
0
0
0
0
2.1559345485745e-14
6.3700224351215e-13
8.6243438634416e-12
7.2112256582626e-11
4.7543152293102e-10
3.2655382813003e-09
2.1879134357915e-08
1.126509791904e-07
4.2468471932813e-07
1.627737799739e-06
9.2516951327636e-06
7.1567795287327e-05
0.00053396258512183
0.0013363143256302
0.001300544503809
0.0010564031985803
0.00068988915336269
0.00027910629455743
5.1270687314948e-05
2.6313590093138e-06
1.2251513450802e-07
2.7745049941331e-08
5.6950729183184e-09
1.0845930353508e-09
2.142695445722e-10
4.8443830054706e-11
1.5680531575515e-11
1.1921124247905e-11
8.7882679733118e-12
4.9760635720178e-12
2.3841889708329e-12
9.8444780104571e-13
3.4224203931066e-13
1.00499380469e-13
2.6227366771282e-14
6.5445029651518e-15
1.6340017856432e-15
4.1000387355739e-16
1.0224199512016e-16
2.5167493229094e-17
6.1143884767159e-18
1.4692865850981e-18
3.4983388650412e-19
8.2612870789802e-20
1.9361525768254e-20
4.5058451600945e-21
1.0417940340301e-21
2.3941946032159e-22
5.4712755474464e-23
1.2437360836153e-23
2.8133278459471e-24
6.3342122395366e-25
1.4199087526662e-25
3.1697755992047e-26
7.0484267414356e-27
1.5614876965479e-27
3.4470494164106e-28
7.5838975152376e-29
1.6631871622094e-29
3.6362700280775e-30
7.9267560629944e-31
1.723110531331e-31
3.7355903824541e-32
8.0775686004545e-33
1.7422927360848e-33
3.7490535988702e-34
8.0486061216362e-35
1.7240677518318e-35
3.685162209392e-36
7.8606698619457e-37
1.6733755234885e-37
3.5553859609287e-38
7.5399179832178e-39
1.5960946358231e-39
3.372772925173e-40
7.1150030768628e-41
1.4984578857789e-41
3.1507672623288e-42
6.6147025940256e-43
1.3865817883348e-43
2.9022840907595e-44
6.0661184704606e-45
1.2661201101945e-45
2.6390509732064e-46
5.4934431045351e-47
1.1420364314803e-47
2.3711971242947e-48
4.9172361846933e-49
1.0184812279008e-49
2.1070516305626e-50
4.354225192568e-51
8.9841562862655e-52
1.8650227735706e-52
3.4804815910812e-53
1.2319880240711e-53
0
0
0
0
4.7146672932415e-30
1.2395897207441e-13
3.0036021718514e-12
3.4606141320998e-11
2.6913869794346e-10
1.9765687031618e-09
1.4901122060054e-08
1.0113275572002e-07
5.6992929071066e-07
2.5883766293762e-06
9.9986837721471e-06
3.9539924881942e-05
0.00019763559743791
0.0012536133678176
0.0068748609733955
0.020437799244093
0.020358903852129
0.014706738463298
0.0062512033990417
0.00099535449740735
3.9497194197357e-05
2.4702739980371e-06
6.0903273201178e-07
1.1973655960708e-07
2.2605018906703e-08
4.2807437375878e-09
8.2452043281588e-10
1.6966816237145e-10
4.1516688979404e-11
2.3368331857579e-11
1.8495603819935e-11
1.2576498714764e-11
6.6988542209401e-12
2.8858132452266e-12
1.0052224384803e-12
2.9101492425301e-13
7.5956242836256e-14
1.9302564604088e-14
4.9174194552766e-15
1.2506539509721e-15
3.1474047492575e-16
7.8125051502602e-17
1.9145171295564e-17
4.6407291829569e-18
1.1142972888192e-18
2.6528195643788e-19
6.2661779859174e-20
1.4694136850916e-20
3.4226754824272e-21
7.9227609525343e-22
1.8233131528806e-22
4.1733396259527e-23
9.5036494770654e-24
2.153837930792e-24
4.8592647274136e-25
1.0916186999633e-25
2.4423759997683e-26
5.4435853095039e-27
1.2088455659196e-27
2.6751343054139e-28
5.9003686663251e-29
1.2972869147419e-29
2.8436496183674e-30
6.2151965165897e-31
1.3546407305372e-31
2.9446396566231e-32
6.3844586293122e-33
1.3808361755837e-33
2.9793810011559e-34
6.4137643279685e-35
1.3776474154364e-35
2.9528021225012e-36
6.3158670343022e-37
1.3482283795006e-37
2.8724580918863e-38
6.1084373131873e-39
1.2966351754018e-39
2.7475179964624e-40
5.8119383400749e-41
1.2273846796743e-41
2.5878563533073e-42
5.4477725497581e-43
1.1450798536835e-43
2.403302407681e-44
5.0367913472275e-45
1.0541167218906e-45
2.2030698580246e-46
4.5981975397724e-47
9.5847573239577e-48
1.9953659889935e-48
4.148819719355e-49
8.6160985494923e-50
1.7865235194069e-50
3.7256036993012e-51
7.0068497787506e-52
2.4733226038437e-52
0
0
0
0
-5.4893713570419e-43
4.3979305685275e-13
9.6642493628178e-12
1.0397563070802e-10
8.8846911037324e-10
7.7589212905938e-09
6.2850664655579e-08
4.3747880564657e-07
2.5267471658696e-06
1.2102008356355e-05
5.0612022489826e-05
0.00020021503013279
0.00082553837707984
0.0039073511962222
0.02038464509303
0.10315354516814
0.33300858864757
0.33680171232119
0.15573737121753
0.023969401033109
0.00070770454474334
5.8593851689081e-05
1.3209266422341e-05
2.4957094661176e-06
4.7087848059192e-07
8.8867066054837e-08
1.6794798207702e-08
3.196857119653e-09
6.2297254615801e-10
1.3932462599352e-10
4.0751617258211e-11
3.6111100631976e-11
3.0141856001654e-11
1.6740580243712e-11
6.8081652153569e-12
2.2777824157377e-12
6.5643158977501e-13
1.7471220659478e-13
4.54034778314e-14
1.1748126694592e-14
3.017835498491e-15
7.6546387013702e-16
1.9146690671707e-16
4.7290662920117e-17
1.1553411272247e-17
2.79545356899e-18
6.7048721390746e-19
1.5952658991883e-19
3.7674652202634e-20
8.8364720297286e-21
2.0593703327464e-21
4.7709368690632e-22
1.0991410850514e-22
2.5190283196978e-23
5.7448245866268e-24
1.3040851317334e-24
2.9473428071446e-25
6.6336287793822e-26
1.4871649013758e-26
3.3215330655149e-27
7.3920828512247e-28
1.6395141515955e-28
3.6245121484935e-29
7.9878727982813e-30
1.755160083955e-30
3.8455570572398e-31
8.4024919566977e-32
1.8310889886637e-32
3.9802152101864e-33
8.6305805510315e-34
1.8670157007748e-34
4.0296409473457e-35
8.6781871694458e-36
1.8649531302346e-36
3.9995699503352e-37
8.5603937514096e-38
1.8286743038942e-38
3.899122489502e-39
8.2986933886308e-40
1.7631453330327e-40
3.739591522408e-41
7.918427555134e-42
1.6739887845329e-42
3.533329422889e-43
7.4464970880566e-44
1.567017120262e-44
3.2928052247422e-45
6.9094738465287e-46
1.4478578577195e-46
3.0298677808518e-47
6.3321590195939e-48
1.3217036330332e-48
2.7542847445376e-49
5.7706671652741e-50
1.0937472818429e-50
3.8517256278793e-51
0
0
0
0
0
1.0745476653915e-12
2.2273938616127e-11
2.4445869216672e-10
2.5230883443031e-09
2.5072367581367e-08
2.1401291932812e-07
1.5649128329036e-06
9.8570617580352e-06
5.1327135974669e-05
0.00022529669819765
0.00091678483514533
0.0037540246155119
0.016411935661347
0.083624393480298
0.42722261502572
0.85694407408332
0.90355524930516
0.82546919557935
0.44141174436237
0.070881951377436
0.0024994803141562
0.00024101736494104
5.4103527295065e-05
1.0199714385345e-05
1.9226453618207e-06
3.6246958046383e-07
6.8391077187916e-08
1.2945907966174e-08
2.4838329450615e-09
5.0374454473186e-10
1.2508870286475e-10
7.949147180391e-11
5.8088955519453e-11
3.2502769059925e-11
1.2972437925829e-11
4.2223233056485e-12
1.2128437289873e-12
3.277323378722e-13
8.6730159000228e-14
2.2734455614893e-14
5.891202451064e-15
1.5052235596838e-15
3.792517514749e-16
9.4372022214028e-17
2.3228043031816e-17
5.661548609534e-18
1.3676935415623e-18
3.277079419721e-19
7.7929936418869e-20
1.8402772254509e-20
4.3175516269118e-21
1.0068304529055e-21
2.3345761761402e-22
5.3844761993592e-23
1.2356581286838e-23
2.8222495168003e-24
6.4172084360914e-25
1.4529548749134e-25
3.2764704677994e-26
7.3602708025527e-27
1.6473777602335e-27
3.6743193071718e-28
8.1679279802637e-29
1.8099241843299e-29
3.9983439427477e-30
8.8069405119318e-31
1.9343961219896e-31
4.2372905682834e-32
9.2575838386677e-33
2.0175068880069e-33
4.3861076144547e-34
9.5132098450274e-35
2.0586995717114e-35
4.44538747617e-36
9.5787291119546e-37
2.0597618771915e-37
4.4204319233717e-38
9.4684145776966e-39
2.0243224063912e-39
4.3201191602343e-40
9.2033942685757e-41
1.9573034152579e-41
4.1557238335261e-42
8.809134595226e-43
1.864389396229e-43
3.9398053568783e-44
8.3131354066086e-45
1.7515532515858e-45
3.6852422792012e-46
7.7429697094645e-47
1.62469520774e-47
3.4033590960191e-48
7.1653735247937e-49
1.3688333711161e-49
4.8110112797261e-50
0
0
0
0
0
1.454726425913e-12
3.0309547127073e-11
3.7701896707804e-10
4.7616693319503e-09
5.3844703141037e-08
5.1155999892696e-07
4.1581143657835e-06
2.8983389491669e-05
0.00017548403941192
0.00089808586959034
0.0039058800986548
0.016416854644523
0.077599462993565
0.39201794069464
0.85466009552926
0.980667088918
0.99318653906754
0.99136747220081
0.94244238273748
0.63335452626243
0.1258231097501
0.0061444339629646
0.00062988345006022
0.0001436128965829
2.7509162981563e-05
5.263095604397e-06
1.0062141247587e-06
1.9232096591447e-07
3.6816114424032e-08
7.1061951084141e-09
1.4226543380628e-09
3.3772268215113e-10
1.5663898022277e-10
1.0036088472354e-10
5.2923952921961e-11
2.026990691768e-11
6.4482460808522e-12
1.8507426550449e-12
5.0628761754805e-13
1.3587096371515e-13
3.599587425071e-14
9.4013559075839e-15
2.4190422539447e-15
6.138667009545e-16
1.5387815987135e-16
3.8154734476748e-17
9.3679600881488e-18
2.2794690471542e-18
5.5008290845774e-19
1.317355565693e-19
3.1325618123836e-20
7.3999856422026e-21
1.7373422508857e-21
4.0553795165276e-22
9.4149987692016e-23
2.174642278931e-23
4.9987045464683e-24
1.1437767841472e-24
2.6058027642426e-25
5.9122381747794e-26
1.3361599839009e-26
3.0084336186962e-27
6.7494918378366e-28
1.509100728227e-28
3.3631394516214e-29
7.4715314675305e-30
1.6548824495264e-30
3.6548411764566e-31
8.0493631001486e-32
1.7680356448911e-32
3.8734604259131e-33
8.4649708860518e-34
1.8454717262814e-34
4.0140256490471e-35
8.7111804182265e-36
1.8863813623828e-36
4.0763123426848e-37
8.7906135196728e-38
1.8919583579127e-38
4.0641540649201e-39
8.7140343230413e-40
1.8650137527241e-40
3.9845617025027e-41
8.4983749017323e-42
1.8095398324667e-42
3.8467731361306e-43
8.1646875075563e-44
1.73027344181e-44
3.6613310932812e-45
7.736206536549e-46
1.632323547107e-46
3.4382121913512e-47
7.2762043671116e-48
1.4013692128575e-48
4.917639029786e-49
0
0
0
0
0
1.4087894452122e-12
2.9399900359922e-11
3.7445782437774e-10
5.0044052964887e-09
6.098910518389e-08
6.4509199044534e-07
6.0836120195666e-06
5.2593624057394e-05
0.00040961375739616
0.002634936322131
0.014358707697619
0.071634061863333
0.36887928907317
0.83871637590229
0.97640688355708
0.99356865103663
0.99688216821325
0.99754639797605
0.99729847915349
0.96716986553045
0.6755517340682
0.13471438739534
0.0079059003979248
0.001048655749179
0.00023197904785882
4.5654573827982e-05
8.9674161029209e-06
1.7585691433857e-06
3.4454573192974e-07
6.7552379125575e-08
1.3330766060147e-08
2.7223769022768e-09
6.4804209018773e-10
2.6911135434946e-10
1.51938450974e-10
7.2540678463061e-11
2.6169424328274e-11
8.0962132296063e-12
2.3191662519823e-12
6.4142512651213e-13
1.741909161128e-13
4.6570422675855e-14
1.2254454657085e-14
3.1762676362912e-15
8.1217864257076e-16
2.0518809537625e-16
5.1279616685105e-17
1.2689697163439e-17
3.111909526298e-18
7.5679805910899e-19
1.826333641901e-19
4.3758711449262e-20
1.0414611545801e-20
2.4632162492792e-21
5.7917539051585e-22
1.3543040055636e-22
3.150334515577e-23
7.2921401703219e-24
1.6800553442423e-24
3.8535872803112e-25
8.8018534858663e-26
2.0023369342754e-26
4.5376848656132e-27
1.0245655014418e-27
2.3052713366405e-28
5.169459813658e-29
1.1554963242045e-29
2.5748255505759e-30
5.7205112290497e-31
1.2672968255992e-31
2.7997807167184e-32
6.1690006377136e-33
1.3557861381523e-33
2.9722907155749e-34
6.5005652434838e-35
1.4184197082762e-35
3.0880507934704e-36
6.7084273260992e-37
1.4542618553997e-37
3.1461372857169e-38
6.7928510799223e-39
1.4638306300522e-39
3.1486011557114e-40
6.760132780696e-41
1.4488559262276e-41
3.099904081417e-42
6.6213137100376e-43
1.4119907508641e-43
3.0062802682767e-44
6.3907810652543e-45
1.3565321880078e-45
2.8742694407123e-46
6.1167103688632e-47
1.188141747031e-47
4.1648928843985e-48
0
0
0
1.7374610639434e-42
1.0189075464302e-32
1.1340508592053e-12
2.3752600640955e-11
3.0220654388368e-10
4.162253814308e-09
5.2901310803201e-08
5.8304926669879e-07
5.7655324754375e-06
5.2970318916299e-05
0.00046616903713369
0.0041895685078851
0.036836918254253
0.27444357241162
0.80081574634615
0.9756682589395
0.99346502919878
0.99693009835316
0.99766529642412
0.99785972441085
0.99788855003473
0.99676707650832
0.960412519276
0.5858527713831
0.095722916323344
0.0056983942981357
0.00091402450355916
0.00020817092454837
4.2563645065384e-05
8.7126874363819e-06
1.7844262588299e-06
3.6573713730837e-07
7.5253288697378e-08
1.5712230389491e-08
3.4975209104717e-09
9.268495530035e-10
3.8371827617287e-10
1.9006462390125e-10
7.9826451181246e-11
2.6947828897697e-11
8.1601317925712e-12
2.3468991711359e-12
6.5731699450566e-13
1.8059259699989e-13
4.8746453410457e-14
1.2942290447555e-14
3.3852853815211e-15
8.7375035213762e-16
2.2282960442908e-16
5.6212330466627e-17
1.4039970581314e-17
3.4747484189968e-18
8.5271780189602e-19
2.0762393814717e-19
5.018500848197e-20
1.2047676739916e-20
2.8737662494345e-21
6.8137403498411e-22
1.6064107566438e-22
3.7670489121154e-23
8.7890912905186e-24
2.0407902919963e-24
4.7170293939695e-25
1.0855510958953e-25
2.4878926599653e-26
5.6792920163569e-27
1.291556692657e-27
2.9265745969852e-28
6.6084232628754e-29
1.4872675964964e-29
3.3364935335134e-30
7.4619894716489e-31
1.663918708386e-31
3.6997266164384e-32
8.2037302642335e-33
1.8142574880423e-33
4.0019489713938e-34
8.8057496261877e-35
1.9329400139899e-35
4.2331233059925e-36
9.249653967085e-37
2.0167032920223e-37
4.3877202462037e-38
9.5267181896967e-39
2.0643386703398e-39
4.4645366095745e-40
9.6372490555142e-41
2.0765070828723e-41
4.4662063773684e-42
9.5893608000006e-43
2.0554439815829e-43
4.3985052301671e-44
9.3975274178805e-45
2.0040611851479e-45
4.2908728319413e-46
8.4100766098107e-47
2.9468561144959e-47
0
0
0
1.4113042605421e-41
1.8563050590893e-32
5.9631286215198e-13
1.2983107980172e-11
1.5911187047573e-10
2.1872921134953e-09
3.0246416724711e-08
3.6607246911324e-07
3.9735728089373e-06
4.02040667886e-05
0.00039075905205169
0.0037904075176159
0.041323069279421
0.41726859900047
0.91128949570846
0.99138111569814
0.99680035675215
0.99772647323723
0.99791175341649
0.99789648156064
0.99792229755132
0.99785963730333
0.98969300309145
0.87242672526756
0.30064193331946
0.023081134747054
0.002125766815605
0.0004630675306659
0.00010056667727084
2.0998780594654e-05
4.382751802706e-06
9.1413780935412e-07
1.909909080512e-07
4.0258674326006e-08
8.8001713222452e-09
2.2046809578004e-09
7.994811338424e-10
3.9996570780982e-10
1.8218540357276e-10
6.6877103422782e-11
2.161901755178e-11
6.543386710252e-12
1.907305025654e-12
5.4203582883275e-13
1.508614033649e-13
4.1213541113946e-14
1.1072235537054e-14
2.9304356453331e-15
7.6523607880032e-16
1.9741456999277e-16
5.0367275974687e-17
1.272040297153e-17
3.1825942487875e-18
7.8938953461487e-19
1.9422130844901e-19
4.7427840672161e-20
1.1500343439898e-20
2.7702406992924e-21
6.6316715402182e-22
1.5782679186213e-22
3.7353389887337e-23
8.7942323882302e-24
2.0601588812519e-24
4.8033588089828e-25
1.1148824391359e-25
2.576579119662e-26
5.9302379802336e-27
1.3595424936776e-27
3.1051157938092e-28
7.0663402228551e-29
1.6025290683122e-29
3.6221859757155e-30
8.16101444975e-31
1.833064933312e-31
4.1050691411727e-32
9.1668009957514e-33
2.0413289141074e-33
4.533637286293e-34
1.0042866089463e-34
2.2191269285918e-35
4.8916427546824e-36
1.0757422158327e-36
2.3603353492424e-37
5.1675040009524e-38
1.1289058141534e-38
2.4611110225238e-39
5.3545982459569e-40
1.1627040424277e-40
2.5198889318206e-41
5.4511211417057e-42
1.1770741806082e-42
2.5372043962313e-43
5.4596805316331e-44
1.172543940957e-44
2.5273828384964e-45
5.0008351350479e-46
1.7531214224924e-46
0
0
0
3.4711998214395e-41
4.0741064533867e-41
1.1253573778004e-13
2.7124080723302e-12
3.2645366347344e-11
4.0259813757705e-10
6.554741082187e-09
1.0089071755051e-07
1.3776877614958e-06
1.6975150955204e-05
0.00019472995537987
0.0020945682729416
0.026942939635502
0.3303641571204
0.87592248551808
0.99106977898368
0.99714734403556
0.99786603406225
0.99789648156064
0.99792077045546
0.99791563247439
0.99732625212824
0.98735492047302
0.87300704221312
0.32664006461923
0.030547225973031
0.0033200742091704
0.00080756765279171
0.00019700234987948
4.1890493494835e-05
8.5023253233904e-06
1.718386461489e-06
3.4724029129847e-07
7.1394752194697e-08
1.5560850873849e-08
3.8767021814423e-09
1.369992989264e-09
6.7552047107584e-10
3.1928377813098e-10
1.26676976787e-10
4.394673265108e-11
1.4091488641479e-11
4.3032218097872e-12
1.2720486543889e-12
3.6671220653159e-13
1.0347744655577e-13
2.8651104352431e-14
7.8003616041398e-15
2.091864873464e-15
5.5340052834207e-16
1.4460063305404e-16
3.7357933073465e-17
9.5515078102033e-18
2.4186947262552e-18
6.070323539241e-19
1.5108832845768e-19
3.7314314297574e-20
9.1486631464909e-21
2.2277587680297e-21
5.3898825071401e-22
1.2961261672485e-22
3.0989483805886e-23
7.3690320669981e-24
1.7432300916669e-24
4.1035210637186e-25
9.6142914201373e-26
2.2424868289414e-26
5.2081204505774e-27
1.2046225094255e-27
2.7753294125193e-28
6.3700296210925e-29
1.4567897677732e-29
3.3200286807174e-30
7.5410794752699e-31
1.7073621954808e-31
3.853619313917e-32
8.6718265254304e-33
1.9457896836144e-33
4.3537871037467e-34
9.7154874012434e-35
2.1623506253009e-35
4.8005145629406e-36
1.0631237456404e-36
2.3488035322302e-37
5.1773474925192e-38
1.1386627447038e-38
2.498838094586e-39
5.4722140417626e-40
1.1959017823268e-40
2.6083136699188e-41
5.677790011778e-42
1.2336047255182e-42
2.6753322191181e-43
5.7900730224277e-44
1.25722767359e-44
2.512501625028e-45
8.8218482515108e-46
0
0
0
1.2313284181336e-40
1.2518864697636e-40
2.1631548899185e-15
7.2110455154731e-14
9.9730608267024e-13
1.1694392896172e-11
2.3601609377968e-10
5.0780791522855e-09
9.7999854938701e-08
1.8204446515799e-06
3.1041958924674e-05
0.00046630295643296
0.0069254541428824
0.10042473542961
0.64512780765558
0.96850201070213
0.99629865671841
0.99764559490921
0.99787273501078
0.99789648156064
0.99764536796157
0.99348410721356
0.96661331182481
0.77413371991727
0.22523490521201
0.023770227883583
0.0039583228003105
0.00099567796427071
0.00023801711383391
5.3635618149565e-05
1.1987525884701e-05
2.6570876434041e-06
5.8336517491109e-07
1.2618258335688e-07
2.7380924268152e-08
6.5002414325141e-09
2.1051795232978e-09
9.6979712683749e-10
4.641918422182e-10
1.9531555005994e-10
7.2061526744139e-11
2.4402987957903e-11
7.8111827034814e-12
2.4053688782999e-12
7.1928738444222e-13
2.0991109449911e-13
5.9974223104421e-14
1.6817411027127e-14
4.6376264979937e-15
1.2597953319768e-15
3.3758074178422e-16
8.9339218572741e-17
2.3374076354226e-17
6.051144137976e-18
1.5512670975626e-18
3.9407375575301e-19
9.9259708024163e-20
2.4803201153371e-20
6.151663478072e-21
1.5150179307297e-21
3.7064300821205e-22
9.0108058365876e-23
2.1776323913065e-23
5.232990673946e-24
1.2507788441795e-24
2.9743189192773e-25
7.0383977871318e-26
1.6578094471562e-26
3.8873924897702e-27
9.0766890591302e-28
2.1106613319664e-28
4.8888123857131e-29
1.1281036487503e-29
2.5936916883783e-30
5.9425174930777e-31
1.356940791511e-31
3.0884597278076e-32
7.0074971407914e-33
1.5851502652805e-33
3.5752672412404e-34
8.0411624610032e-35
1.803602924235e-35
4.034709591612e-36
9.0026111540229e-37
2.00374945528e-37
4.4490703385307e-38
9.8554564627333e-39
2.1781866469804e-39
4.8034384987261e-40
1.0569996352757e-40
2.3210708743484e-41
5.0864760552848e-42
1.1124742108713e-42
2.4278168443388e-43
5.3138880240283e-44
1.0730134329702e-44
3.7781068862543e-45
0
0
0
9.8661831518872e-41
7.7314938227447e-36
-8.9735131770304e-20
1.2198478267389e-15
3.3476404586717e-14
5.5240721188719e-13
8.2881053585916e-12
1.0441911034007e-10
1.7887993365359e-09
3.7927753102797e-08
8.4800186911072e-07
1.7378729322728e-05
0.00034552571311449
0.0092274396102799
0.14847492939342
0.73076897236024
0.97903974233213
0.99642368335933
0.99756166220972
0.99733285451256
0.99312982221327
0.9714371804206
0.85466214739116
0.40377299029819
0.077697547573396
0.014905221427468
0.0037600497750936
0.00096859435673294
0.00023605547128768
5.5699216117569e-05
1.2866693273648e-05
2.93550191937e-06
6.6175064693972e-07
1.4928470552006e-07
3.4516661431053e-08
8.6452459274243e-09
2.7675985940341e-09