/*--------------------------------*- C++ -*----------------------------------*\
  =========                 |
  \\      /  F ield         | OpenFOAM: The Open Source CFD Toolbox
   \\    /   O peration     | Website:  https://openfoam.org
    \\  /    A nd           | Version:  7
     \\/     M anipulation  |
\*---------------------------------------------------------------------------*/
FoamFile
{
    version     2.0;
    format      ascii;
    class       surfaceScalarField;
    location    "0.6";
    object      alphaPhi0.water;
}
// * * * * * * * * * * * * * * * * * * * * * * * * * * * * * * * * * * * * * //

dimensions      [0 3 -1 0 0 0 0];

internalField   nonuniform List<scalar> 
11840
(
0
0
0
0
0
0
0
0
0
0
0
0
0
0
0
0
0
0
0
0
0
0
0
0
0
0
0
0
0
0
0
0
0
0
0
0
0
0
0
0
0
0
0
0
0
0
0
0
0
0
0
0
0
0
0
0
0
0
0
0
0
0
0
0
0
0
0
0
0
0
0
0
0
0
0
0
0
0
0
0
0
0
0
0
0
0
0
0
0
0
0
0
0
0
0
0
0
0
0
0
0
0
0
0
0
0
0
0
0
0
0
0
0
0
0
0
0
0
0
0
0
0
0
0
0
0
0
0
0
0
0
0
0
0
0
0
0
0
0
0
0
0
0
0
0
0
0
0
0
0
0
0
0
0
0
0
0
0
0
0
0
0
0
0
0
0
0
0
0
0
0
0
0
0
0
0
0
0
0
0
0
0
0
0
0
0
0
0
0
0
0
0
0
0
0
0
0
0
0
0
0
0
0
0
0
0
0
0
0
0
0
0
0
0
0
0
0
0
0
0
0
0
0
0
0
0
0
0
0
0
0
0
0
0
0
0
0
0
0
0
0
0
0
0
0
0
0
0
0
0
0
0
0
0
0
0
0
0
0
0
0
0
0
0
0
0
0
0
0
0
0
0
0
0
0
0
0
0
0
0
0
0
0
0
0
0
0
0
0
0
0
0
0
0
0
0
0
0
0
0
0
0
0
0
0
0
0
0
0
0
0
0
0
0
0
0
0
0
0
0
0
0
0
0
0
0
0
0
0
0
0
0
0
0
0
0
0
0
0
0
0
0
0
0
0
0
0
0
0
0
0
0
0
0
0
0
0
0
0
0
0
0
0
0
0
0
0
0
0
0
0
0
0
0
0
0
0
0
0
0
0
0
0
0
0
0
0
0
0
0
0
0
0
0
0
0
0
0
0
0
0
0
0
0
0
0
0
0
0
0
0
0
0
0
0
0
0
0
0
0
0
0
0
0
0
0
0
0
0
0
0
0
0
0
0
0
0
0
0
0
0
0
0
0
0
0
0
0
0
0
0
0
0
0
0
0
0
0
0
0
0
0
0
0
0
0
0
0
0
0
0
0
0
0
0
0
0
0
0
0
0
0
0
0
0
0
0
0
0
0
0
0
0
0
0
0
0
0
0
0
0
0
0
0
0
0
0
0
0
0
0
0
0
0
0
0
0
0
0
0
0
0
0
0
0
0
0
0
0
0
0
0
0
0
0
0
0
0
0
0
0
0
0
0
0
0
0
0
0
0
0
0
0
0
0
0
0
0
0
0
0
0
0
0
0
0
0
0
0
0
0
0
0
0
0
0
0
0
0
0
0
0
0
0
0
0
0
0
0
0
0
0
0
0
0
0
0
0
0
0
0
0
0
0
0
0
0
0
0
0
0
0
0
0
0
0
0
0
0
0
0
0
0
0
0
0
0
0
0
0
0
8.992939566695e-45
7.1785306504229e-45
3.015227338555e-44
3.1838904061692e-44
1.0758843261378e-43
1.1498005341135e-43
3.6592903170181e-43
3.8416753731924e-43
1.3919374682083e-42
1.3322922846463e-42
1.0879024241226e-41
7.7103889644899e-42
4.0121286388151e-41
3.106847100386e-41
1.1165847966195e-40
8.461464284719e-41
1.4233808796801e-40
8.2666728708438e-41
1.5122373405897e-40
7.5688760116183e-41
9.4805387071156e-41
5.8621362843674e-41
2.6074222672926e-41
2.5292733127961e-41
4.0981936383851e-42
6.8525223864801e-42
6.5359048060561e-43
1.5722851868728e-42
1.2269911855976e-43
4.1091308196831e-43
2.2039941757909e-44
8.4288265015608e-44
5.1167933953161e-45
1.2435494464255e-44
7.858220321705e-46
3.8701641291921e-45
1.9866873530684e-46
4.7165439018446e-46
3.6560644188957e-47
1.4860317844066e-46
5.4496374935685e-48
2.8711751166275e-47
1.2999875318332e-48
3.6817949793912e-48
1.9033899997223e-49
1.0232623108357e-48
3.7819402954285e-50
1.1340095396229e-49
9.6222688419057e-51
2.2416098801951e-50
1.7501534183569e-51
7.2201405063084e-51
2.4298420781086e-52
1.349705322324e-51
4.6589196300101e-53
1.4956308136357e-52
8.8627077185105e-54
2.7441516026459e-53
1.8099080108451e-54
5.3116660013695e-54
3.250052573175e-55
1.332587203371e-54
6.8073803729579e-56
2.0179342702489e-55
1.585000666782e-56
4.0731228031257e-56
2.4519119235789e-57
1.3146373415173e-56
5.9889388569161e-58
1.4274400332718e-57
8.630684220684e-59
4.7056504169628e-58
2.2705749128196e-59
5.2736558449775e-59
4.0969496302411e-60
1.7098660191752e-59
5.9462540884354e-61
3.2278987824298e-60
1.4991446934386e-61
3.6432318187328e-61
2.1732427473426e-62
1.1792322175393e-61
5.5446409019588e-63
1.3326170366824e-62
8.5807172616944e-64
4.3134839035595e-63
1.5021299048641e-64
6.4033917656669e-64
3.7853819650534e-65
9.2258607351054e-65
5.4981754060678e-66
2.9819415596039e-65
1.4437113042038e-66
3.3683621028942e-66
2.6070303976031e-67
1.0911807155952e-66
3.813897670874e-68
2.0591016309087e-67
9.6068239225167e-69
2.3477861667288e-68
1.4018391665245e-69
7.5762309285287e-69
3.6709345005496e-70
8.6144245489488e-70
6.575347154827e-71
2.7848297755048e-70
9.8803838362832e-72
5.1759228206583e-71
2.0585669727131e-72
6.1918337726905e-72
3.8224877469857e-73
1.5100920909378e-72
9.87815179949e-74
2.3484814297783e-73
1.7872907021453e-74
7.4948630177808e-74
2.6333613929639e-75
1.4172602019201e-74
6.9113787528283e-76
1.6240818041541e-75
1.2688425459173e-76
5.2342435100074e-76
2.4223891040193e-77
9.7886703946505e-77
4.4045314000561e-78
1.8476198492693e-77
6.4642190652216e-79
3.5003633222977e-78
1.320341708702e-79
4.5536281901616e-79
2.8700515117272e-80
8.2143093202143e-80
6.087906614025e-81
1.7410119065632e-80
1.2699005689278e-81
3.678243860986e-81
3.0424986982665e-82
7.5716320379151e-82
5.5203705143309e-83
2.313019866546e-82
8.3239901516468e-84
4.3915595128871e-83
1.8356792071066e-84
5.263789783082e-84
4.3318359922494e-85
1.1113552589649e-84
6.4047485245785e-86
3.4385391902196e-85
1.3348056786098e-86
4.4399711645936e-86
2.9322604155854e-87
8.3336466916737e-87
6.2813884330529e-88
1.7841730291761e-87
1.334103549854e-88
3.7942639874243e-88
2.669770110944e-89
8.1158046432272e-89
4.7489039009767e-90
2.0372203628338e-89
1.0353181346222e-90
3.0147931292213e-90
2.5494613970786e-91
6.2069578031329e-91
1.8871954427673e-91
0
0
0
0
0
0
0
0
0
0
0
0
0
0
0
0
0
0
2.3690004336747e-33
0
4.3074688988063e-34
1.9382535437941e-33
7.8321289444895e-35
3.5242560043574e-34
5.9264532560498e-34
0
1.0775369821341e-34
4.8489162739157e-34
1.9591581520872e-35
8.8162116692536e-35
3.5621057318947e-36
1.6029475788977e-35
6.4765558762609e-37
2.9144501442686e-36
2.5815067569286e-36
0
4.6936489229266e-37
2.1121419589072e-36
8.5339148477599e-38
3.8402603125463e-37
1.5516472165953e-38
6.9823644824618e-38
2.8221201098545e-39
1.2697789854729e-38
1.8187022697581e-38
0
3.3403153862354e-39
1.4944902458801e-38
3.8484852191745e-40
3.1616760413605e-39
2.054502032032e-40
3.4822398675956e-40
6.6467872420086e-41
2.144100498101e-40
2.8998849740749e-41
9.1859076615434e-41
1.33872848426e-41
3.76466447418e-41
6.0052094964104e-42
1.1451304626071e-41
4.6345027488302e-42
0
9.9176426268429e-43
3.9068307410855e-42
1.9136934463284e-43
8.0535076844843e-43
1.3713907111039e-43
0
2.6594238712521e-44
1.1155371475997e-43
9.0016585559666e-45
0
9.0486072162846e-45
0
3.4525612507344e-46
8.7129903194927e-45
3.3439464676657e-46
0
3.0701870300343e-47
3.0403397362133e-46
7.6365610655776e-48
2.6237126405125e-47
3.0703807818154e-48
0
5.6104345963156e-49
2.511573051845e-48
1.0546425641171e-50
5.5094300353872e-49
4.8620119221265e-51
0
2.2308371820879e-51
0
6.4368910663775e-52
0
2.8653967941524e-52
3.5728462495838e-52
8.0486550457242e-53
0
1.9835918169793e-53
0
9.9069808222402e-54
9.9248913533847e-54
8.4291978992527e-55
9.9651491905735e-54
8.4304765645528e-55
0
1.5482973828397e-55
0
1.5479957251647e-55
0
2.1812797431779e-56
1.3298770118394e-55
1.3765928417066e-56
0
1.8867684768623e-57
1.187919452024e-56
1.2006064798553e-57
0
2.8187249384191e-59
1.1724205353639e-57
2.8176260168879e-59
0
1.6884954032975e-59
0
2.2857134106618e-60
1.4599249998843e-59
1.3352658624516e-60
0
2.4277603209783e-61
1.0924901838445e-60
3.2503460496825e-62
2.1027263937003e-61
1.855660283066e-62
0
2.4367767711962e-63
1.6119828603208e-62
1.4170188588005e-63
0
4.3396142653434e-65
1.3736228124535e-63
4.3379320181607e-65
0
4.1266752189704e-66
0
4.1242318767906e-66
0
2.2771454736839e-66
0
3.8967197757558e-67
1.8874735244803e-66
6.3771768130352e-68
3.2590021489699e-67
7.763004545584e-69
0
7.7594609215333e-69
0
2.5669060725968e-70
7.5027703536693e-69
2.5657343434712e-70
0
9.0671037333131e-72
2.4750633201371e-70
7.9108857299847e-72
0
8.8533600975253e-73
0
2.7991734607927e-73
0
2.097590680566e-73
0
2.3217965945248e-74
0
2.3206163191128e-74
0
4.1848635667212e-76
2.2787676854617e-74
2.5976032434343e-76
0
1.8353872597513e-76
0
6.2337834567705e-78
1.7730494267926e-76
5.2997113918429e-78
0
4.9830097225404e-79
0
1.5405217864305e-79
0
1.1464456355529e-79
0
9.4545579976568e-81
0
9.4479756633161e-81
0
6.8041048271716e-82
0
3.8818509385114e-82
0
0
0
0
0
0
0
0
0
0
0
0
0
0
0
0
4.4678794522983e-17
2.245256142998e-17
1.0072877163775e-15
5.2630072054967e-16
9.4753246184847e-15
5.2997557961679e-15
4.7033003029569e-14
2.8253140620032e-14
2.0203198267535e-13
1.2055182967835e-13
1.6540316134291e-12
8.8494486528888e-13
1.8335877210833e-11
9.9877346893362e-12
8.120838096523e-11
5.9129872049403e-11
2.0021966595643e-10
1.9678117409467e-10
3.9267449118505e-10
4.4438868127742e-10
5.3554353227153e-10
7.2711231406382e-10
5.4341293387822e-10
8.0964657936898e-10
4.9030807592188e-10
7.6796733674884e-10
3.5111140226394e-10
6.2261370579516e-10
1.6368868741945e-10
3.7055965749848e-10
3.9698159417598e-11
1.3510524994563e-10
4.9863060872208e-12
2.613172518434e-11
7.4225052415534e-13
3.6132989967395e-12
1.3328026619964e-13
6.0771083444182e-13
2.9691947397012e-14
1.0376056914267e-13
9.3121039549608e-15
2.0619385019551e-14
3.2843090858517e-15
6.1531085410055e-15
1.1642120972895e-15
2.1543341816601e-15
4.0871262546258e-16
7.6312004790277e-16
1.4290283657278e-16
2.6887510639108e-16
4.9330623237899e-17
9.4166278750086e-17
1.6231300428546e-17
3.2109966285282e-17
4.889238668801e-18
1.0271193263262e-17
1.3339519054017e-18
3.0024628298348e-18
3.3963891252756e-19
8.0740362804391e-19
8.4150368942675e-20
2.0618396818079e-19
2.073820893157e-20
5.1496662667169e-20
5.087427233877e-21
1.2735911478036e-20
1.2357327795225e-21
3.1203543917785e-21
2.9653563666617e-22
7.5589840195168e-22
7.0376065832056e-23
1.8102279695778e-22
1.6548503818033e-23
4.29080479957e-23
3.8602302176995e-24
1.0079947875926e-23
8.9390738181356e-25
2.3491471322378e-24
2.0559971702384e-25
5.4348929289069e-25
4.699112892975e-26
1.2489490538102e-25
1.0677563012383e-26
2.8522681706983e-26
2.413065626681e-27
6.4762584242251e-27
5.4257911413505e-28
1.4625805531716e-27
1.2142065828412e-28
3.286478828561e-28
2.7050920798762e-29
7.3501167091219e-29
6.0012782688131e-30
1.6365637075865e-29
1.326109690189e-30
3.6287563402892e-30
2.9193193123648e-31
8.0143704973679e-31
6.4037538033431e-32
1.7634337810237e-31
1.3999606197917e-32
3.8664329380647e-32
3.0506766456596e-33
8.4488934936403e-33
6.627368372078e-34
1.8403374207501e-33
1.435525939163e-34
3.9963919514585e-34
3.1007156308244e-35
8.653095629836e-35
6.6795275183626e-36
1.8683711310367e-35
1.4351946052718e-36
4.023411568225e-36
3.0761120633938e-37
8.6419812654116e-37
6.5775161283531e-38
1.8516733720716e-37
1.4032320719431e-38
3.958123730956e-38
2.9870455012844e-39
8.441649852024e-39
6.3450292034926e-40
1.796449092372e-39
1.3450471234825e-40
3.8149294838964e-40
2.8456678537642e-41
8.0848972620626e-41
6.0090076144234e-42
1.7100522807298e-41
1.2665447548166e-42
3.6101059049799e-42
2.6647930455366e-43
7.6073493592331e-43
5.5970107242753e-44
1.6002040700675e-43
1.1736045257962e-44
3.3602403276045e-44
2.4568717809053e-45
7.0443573394337e-45
5.1352227520276e-46
1.4743833846323e-45
1.0716972972538e-46
3.0810471374786e-46
2.2332639718547e-47
6.4287267030924e-47
4.6470911445825e-48
1.3393965823553e-47
9.6563461442519e-49
2.7865640169218e-48
2.0037866595019e-49
5.7892414870057e-49
4.1525315682021e-50
1.2011120473315e-49
8.5943356067933e-51
2.4886870328742e-50
1.7764951718231e-51
5.1498782094153e-51
3.6675999294057e-52
1.064333937139e-51
7.5627432027266e-53
2.1969840517435e-52
1.557646699301e-53
4.5295716855655e-53
3.2045200635308e-54
9.3278439109434e-54
6.585264211131e-55
1.9187193653965e-54
1.3517951193046e-55
3.9423881605512e-55
2.7719594047654e-56
8.0916346534188e-56
5.6782114179472e-57
1.6590249641241e-56
1.161973391189e-57
3.3979700506839e-57
2.3753703369134e-58
6.9526353170261e-58
4.8543446832989e-59
1.4210132489638e-58
9.8067666457281e-60
2.9069705104269e-59
2.2756660129693e-60
5.7627173212466e-60
1.63663121065e-60
0
0
0
0
0
0
0
0
0
0
0
0
4.2161387470153e-17
2.0857440996082e-17
1.3446972514289e-15
6.6235105633258e-16
1.9827599558094e-14
9.8243065104532e-15
1.8005208646406e-13
9.2240357763414e-14
9.6199018322719e-13
5.6334641366212e-13
3.2369751597712e-12
2.1718863826386e-12
1.4184371510413e-11
7.7725188214029e-12
1.190482965688e-10
5.2835657893457e-11
1.3661711419264e-09
5.8853921879122e-10
7.1228622581488e-09
4.3928188838172e-09
1.5139721308663e-08
1.5087646840286e-08
2.0136679044297e-08
2.6807635820799e-08
2.0252422672425e-08
2.9784709629662e-08
1.8178771675681e-08
2.8251927567656e-08
1.2984940885676e-08
2.2940096422609e-08
6.0703979490365e-09
1.3716165245309e-08
1.4971171037667e-09
5.0709560308543e-09
1.9084445345717e-10
1.0095016203841e-09
3.0020475606905e-11
1.4309290636342e-10
5.5095515167437e-12
2.5096229382268e-11
1.0134979747077e-12
4.6265929404843e-12
2.0467811949662e-13
8.29687409074e-13
5.6979646454808e-14
1.5445151707087e-13
2.1335619555483e-14
3.836778726745e-14
8.4096891656732e-15
1.3789423971438e-14
3.284297569922e-15
5.3883913376786e-15
1.2694879261961e-15
2.1150571417764e-15
4.7673266442796e-16
8.1946647663833e-16
1.6648706514673e-16
3.0304901434872e-16
5.1910952542052e-17
1.0249138543136e-16
1.4422097104541e-17
3.0990432482978e-17
3.7213166181274e-18
8.5127543082068e-18
9.3547165060071e-19
2.2114833029248e-18
2.340801837967e-19
5.614665811674e-19
5.8257658196177e-20
1.4104910801987e-19
1.4340760426809e-20
3.5066688192545e-20
3.4851118890212e-21
8.6124219812051e-21
8.3723571095231e-22
2.0896914493104e-21
1.9918447402361e-22
5.0156563942203e-22
4.6986355901621e-23
1.1924777246003e-22
1.0998120302945e-23
2.811147906415e-23
2.5559009084017e-24
6.5757729096548e-24
5.9003502800519e-25
1.5272289320369e-24
1.3537269817894e-25
3.5236314508567e-25
3.0881022479114e-26
8.0800645770885e-26
7.0068855039691e-27
1.8423067844597e-26
1.5818969582909e-27
4.17825957935e-27
3.5545375018062e-28
9.4289007913453e-28
7.9516776159145e-29
2.1178235069323e-28
1.7713850683931e-29
4.735867478353e-29
3.930463319405e-30
1.0546231499414e-29
8.6884136420915e-31
2.3392694526727e-30
1.9137494305414e-31
5.1693639048467e-31
4.2010001898594e-32
1.1382800192285e-31
9.1920554784459e-33
2.4979911906681e-32
2.0050668737736e-33
5.4642585109632e-33
4.3607443136409e-34
1.1916086338284e-33
9.4572074197444e-35
2.5909375686836e-34
2.0454407111476e-35
5.6176642456812e-35
4.4124547121001e-36
1.2147333469172e-35
9.4948380273179e-37
2.6198707033279e-36
2.0382173096459e-37
5.6363345194569e-37
4.3652399472242e-38
1.2096872268128e-37
9.3281853926737e-39
2.5902859482509e-38
1.9890795358119e-39
5.5342285524791e-39
4.2325839211596e-40
1.1798738035422e-39
8.9885186996914e-41
2.5102411577356e-40
1.9051482078543e-41
5.3300005635869e-41
4.03046264411e-42
1.1295352819712e-41
8.5112329296007e-43
2.3892431023816e-42
1.7941803496392e-43
5.0446923831839e-43
3.7757141765321e-44
1.0632792086527e-43
7.9325662606773e-45
2.2372858443467e-44
1.6639144546016e-45
4.6997983882264e-45
3.4847454804155e-46
9.8569280294579e-46
7.2870720986228e-47
2.0640896117294e-46
1.5215816846818e-47
4.3157788139973e-47
3.1725985558724e-48
9.0105575268062e-48
6.6058587674218e-49
1.8785526345808e-48
1.3735791756556e-49
3.9110276493443e-49
2.8523552848475e-50
8.1314892179737e-50
5.9155300104809e-51
1.6884032245747e-50
1.2252870185188e-51
3.5012545516826e-51
2.5348342516038e-52
7.2514787994072e-52
5.2377137832344e-53
1.5000241155141e-52
1.0810027710768e-53
3.0992136194231e-53
2.2285203859358e-54
6.3958568295001e-54
4.5890475660747e-55
1.318413916254e-54
9.4396695662698e-56
2.7147001619908e-55
1.9395963816573e-56
5.5837137533634e-56
3.9837786335753e-57
1.1471326941377e-56
8.0886199654707e-58
2.3585903953935e-57
1.8866127153054e-58
4.7000923299645e-58
1.3420783700686e-58
0
0
0
0
0
0
0
0
0
0
1.7832319626664e-17
8.6591849266255e-18
8.05546939556e-16
3.8428098151953e-16
1.4050063373964e-14
6.6765779523524e-15
1.4423115066237e-13
6.7894659394226e-14
1.1194268265066e-12
5.1491412599425e-13
7.7142640756142e-12
3.8242284328848e-12
4.0176567787277e-11
2.4160113400795e-11
1.556881291786e-10
9.5892990667409e-11
6.9164172133153e-10
3.5544815660454e-10
4.9972055795704e-09
2.0750499435478e-09
4.5636801568993e-08
1.7467048029254e-08
2.6316706934152e-07
1.4760564378229e-07
4.3427599991145e-07
4.9333106918879e-07
4.3310009006136e-07
6.2959842968605e-07
3.8632075987485e-07
5.9766243640115e-07
2.7838111673282e-07
4.8792346777553e-07
1.3531012214076e-07
2.9909082851467e-07
3.5939550377417e-08
1.1647920348737e-07
4.8775495612869e-09
2.4896140164196e-08
7.4213976910355e-10
3.5645403444725e-09
1.3732853878421e-10
6.2415116415159e-10
2.6024953579806e-11
1.1728903184498e-10
4.8530430147489e-12
2.1981887010778e-11
9.0834356576471e-13
4.0960174720807e-12
2.0335161577161e-13
7.4309313217673e-13
6.7402854733716e-14
1.4978683036038e-13
2.86906872022e-14
4.4217862523553e-14
1.2875514133393e-14
1.8458636336352e-14
5.7284451835673e-15
8.3038375010776e-15
2.3730663257897e-15
3.6422738772859e-15
8.6880165075085e-16
1.4619642293816e-15
2.7526844368638e-16
5.1615968835527e-16
7.7281521989868e-17
1.5967321079424e-16
2.0277554117429e-17
4.4700752229274e-17
5.1995417779423e-18
1.1848471655166e-17
1.3244284265309e-18
3.0668688549034e-18
3.345985818665e-19
7.8369104348247e-19
8.3487348747267e-20
1.9781304187415e-19
2.0554312591077e-20
4.9272849265395e-20
5.0000297485826e-21
1.211686344922e-20
1.203836752335e-21
2.9456837594513e-21
2.8721910823747e-22
7.0889599691577e-22
6.7961242033311e-23
1.6905694455798e-22
1.5958440614013e-23
3.9983926742718e-23
3.7209251673839e-24
9.3849034944811e-24
8.6192396874276e-25
2.1873611979333e-24
1.984473017619e-25
5.0650352860784e-25
4.5431483080899e-26
1.1657739078274e-25
1.0345744280792e-26
2.6680375549504e-26
2.344233928094e-27
6.0739610395725e-27
5.2869091293268e-28
1.37592575135e-27
1.1870790545828e-28
3.1023264467135e-28
2.6542326764708e-29
6.9640842967611e-29
5.9111953812831e-30
1.5567849382651e-29
1.3115229946177e-30
3.4663800789498e-30
2.8994852245111e-31
7.6894187277563e-31
6.3882814159668e-32
1.6996531423036e-31
1.4029216072049e-32
3.7441213206022e-32
3.0713689660924e-33
8.2211025792039e-33
6.7040653653155e-34
1.7995480295713e-33
1.4591719723944e-34
3.9274275830158e-34
3.16728633751e-35
8.5470917185852e-35
6.8569035226697e-36
1.8550018889321e-35
1.4807195510748e-36
4.0154405172047e-36
3.1897970638673e-37
8.670195365025e-37
6.8554763189197e-38
1.8675517474775e-37
1.4700533304625e-38
4.0133143525011e-38
3.1454574775252e-39
8.6051187404776e-39
6.7161788348856e-40
1.8410601122716e-39
1.431129754168e-40
3.9306899124525e-40
3.0435682485989e-41
8.3750963839143e-41
6.4604348971315e-42
1.7809834943638e-41
1.3688035045606e-42
3.7801264262433e-42
2.8949811854618e-43
8.0085700407932e-43
6.112221274244e-44
1.6936762741183e-43
1.288318750873e-44
3.5756575764137e-44
2.7110635828793e-45
7.5362224156233e-45
5.6959788982096e-46
1.5857870515408e-45
1.1948917812117e-46
3.331574372394e-46
2.502872198651e-47
6.9885458973729e-47
5.2349943294465e-48
1.4637776128007e-47
1.0933972314671e-48
3.0614829000867e-48
2.2805520310053e-49
6.3940165307829e-49
4.7502627058047e-50
1.333573174917e-49
9.8815625703397e-51
2.7776431411656e-50
2.0529486978888e-51
5.7778628916946e-51
4.2597939729622e-52
1.2003372450531e-51
8.8281587821307e-53
2.4905663307657e-52
1.8274064806122e-53
5.1613666598777e-53
3.7783029051232e-54
1.0683544769514e-53
7.8027642728952e-55
2.2088444386393e-54
1.6106271321572e-55
4.5611513362805e-55
3.2865002378271e-56
9.4251451749334e-56
7.7046821995409e-57
1.8878927719804e-56
5.4199858230797e-57
0
0
0
0
0
0
0
0
0
0
2.2579957897131e-16
1.0173053372769e-16
6.4559117603198e-15
2.9051592494486e-15
8.4511479944101e-14
3.8073439107133e-14
7.1270866399792e-13
3.1388080602646e-13
5.4115204584965e-12
2.25276461036e-12
4.1610050630441e-11
1.7997842594208e-11
2.7059967933729e-10
1.3306519421032e-10
1.3015336984749e-09
7.378491129824e-10
5.1074908130851e-09
2.9095451563334e-09
2.2090402815305e-08
1.0905726395343e-08
1.3423548180093e-07
5.5142734529431e-08
9.9067077733046e-07
3.7526677169921e-07
5.0854081103337e-06
2.9150092772339e-06
7.2479177926282e-06
8.9299962579446e-06
6.7259594824816e-06
1.0209558992794e-05
4.9037679802553e-06
8.5549630187416e-06
2.6434478539804e-06
5.5882366167226e-06
7.757910888342e-07
2.3527885467285e-06
1.0776866640206e-07
5.3063789503755e-07
1.5579342864816e-08
7.5460437166339e-08
2.8863532573692e-09
1.3177321572112e-08
5.52866633013e-10
2.4864356410167e-09
1.0429557495052e-10
4.6951698493032e-10
1.9663608333368e-11
8.8536331201509e-11
3.7019479122231e-12
1.6669599116973e-11
7.1642070054943e-13
3.1265817333718e-12
1.8320232837109e-13
5.8576958801924e-13
7.4638083843001e-14
1.3423214313157e-13
3.7190991215772e-14
4.9916433912292e-14
1.8291247237514e-14
2.4048378582471e-14
8.1416282579736e-15
1.1473876302125e-14
3.1222873435172e-15
4.9208592012009e-15
1.0167535792033e-15
1.8159885726897e-15
2.9009632887577e-16
5.7705773762068e-16
7.7096476186115e-17
1.6438957988609e-16
2.003651748419e-17
4.4223593724306e-17
5.1739577893835e-18
1.1614295318863e-17
1.3237683062572e-18
3.0091394805989e-18
3.341088705542e-19
7.6921472682678e-19
8.3143356365439e-20
1.9384981656678e-19
2.0434351774822e-20
4.819754389349e-20
4.9687475526898e-21
1.1840834824061e-20
1.1967567929314e-21
2.8783518097867e-21
2.8575870308338e-22
6.9306569490322e-22
6.769020542139e-23
1.6543941239584e-22
1.5916657648946e-23
3.9178323753833e-23
3.7171993483917e-24
9.2101032028528e-24
8.6263684406518e-25
2.1504624545989e-24
1.9900959649908e-25
4.9894953981933e-25
4.5658232218738e-26
1.1508625079744e-25
1.0421042973291e-26
2.6399564093362e-26
2.3669196808212e-27
6.0245396240542e-27
5.3512662318799e-28
1.3681615157506e-27
1.2045911363639e-28
3.0928379997307e-28
2.700427334203e-29
6.9613285751992e-29
6.030123211032e-30
1.5604198280508e-29
1.3415421929802e-30
3.4841422794781e-30
2.9740198847864e-31
7.7506590984081e-31
6.5707622569002e-32
1.7180916089894e-31
1.4470570306633e-32
3.7956801086348e-32
3.1769796296141e-33
8.3586065891627e-33
6.9543842823774e-34
1.835015768081e-33
1.5179977035296e-34
4.0166474677751e-34
3.3044630871283e-35
8.7671439518868e-35
7.1745397868392e-36
1.9084117013432e-35
1.5537946717571e-36
4.1433473677789e-36
3.3569128761151e-37
8.9730253400126e-37
7.235547011803e-38
1.9385410812666e-37
1.5560490821268e-38
4.178280190456e-38
3.3391009608101e-39
8.9854989507904e-39
7.1502622668528e-40
1.9281576177718e-39
1.5280256261798e-40
4.128861297608e-40
3.2589974405124e-41
8.8233899943901e-41
6.9375974165633e-42
1.8818563434901e-41
1.4741153064676e-42
4.0059928707519e-42
3.1266222106559e-43
8.5120097653168e-43
6.6200925479585e-44
1.8054128625675e-43
1.399327609635e-44
3.8226670888637e-44
2.952992772422e-45
8.0802330154525e-45
6.2217560363367e-46
1.7051777314111e-45
1.3088511143069e-46
3.5927227721821e-46
2.7492383912689e-47
7.5579683108497e-47
5.7662948141153e-48
1.5875664030047e-47
1.2077032346519e-48
3.329826259421e-48
2.5259136825103e-49
6.9741407494799e-49
5.2757833110972e-50
1.4586638304121e-49
1.1004750819759e-50
3.0467045487951e-50
2.2925159084347e-51
6.3552217691606e-51
4.7697632499177e-52
1.323946277122e-51
9.9116878824439e-53
2.754625759904e-52
2.0571201433713e-53
5.7243120949694e-53
4.2671060714405e-54
1.1879969643998e-53
8.7497843146439e-55
2.4669986175966e-54
2.0615833167199e-55
4.9666090407282e-55
1.4334933593992e-55
0
0
0
0
0
0
0
0
9.4293345962528e-32
1.8809628313158e-32
1.295870059585e-15
5.3690606018072e-16
3.0236956253843e-14
1.266378861264e-14
3.4361559519327e-13
1.425350497818e-13
2.9927927742144e-12
1.1554105675626e-12
2.5873345693721e-11
9.8303693512592e-12
2.0292395540214e-10
8.1943554147522e-11
1.335740034303e-09
5.8935874033065e-10
7.1193501084404e-09
3.5221691156347e-09
3.1064917988598e-08
1.6817287131177e-08
1.23339617276e-07
6.6411558436711e-08
5.2928485807338e-07
2.5646778588973e-07
2.7820570575699e-06
1.1801356303011e-06
1.6845586902252e-05
6.9734754772015e-06
6.7392297273079e-05
4.0868620935778e-05
0.00011340744504834
0.00014873380556862
0.00010845645479364
0.00018725224456488
6.2008117759187e-05
0.0001399805708137
1.7426109261347e-05
5.7456957619973e-05
2.0650242197945e-06
1.0954386838063e-05
3.143366015414e-07
1.5201200455415e-06
5.9390075562789e-08
2.689807671308e-07
1.131446677058e-08
5.0851878617824e-08
2.1363988755225e-09
9.6094120027561e-09
4.0341725345179e-10
1.8143588734261e-09
7.6176950865371e-11
3.4257660593253e-10
1.4377656964598e-11
6.4673567621491e-11
2.732374158556e-12
1.2192682178989e-11
5.8067108620065e-13
2.281440209997e-12
1.8621215331293e-13
4.6400891418864e-13
9.3128637279085e-14
1.3325930424178e-13
4.9609073009728e-14
6.2300804607028e-14
2.3481550311271e-14
3.1402618067594e-14
9.1693184474012e-15
1.3921338270943e-14
2.950202763005e-15
5.1529836858738e-15
8.3388214129624e-16
1.6254101772735e-15
2.2349414847301e-16
4.6385094354857e-16
5.9034241046675e-17
1.2628333602463e-16
1.5453770627736e-17
3.3634441053447e-17
3.9933280839517e-18
8.8184582773408e-18
1.0165143661348e-18
2.2767231094718e-18
2.5509961843411e-19
5.7902066976135e-19
6.3225186559032e-20
1.4524510595448e-19
1.5500001267408e-20
3.5992192969711e-20
3.7629286452349e-21
8.822691835533e-21
9.0540993250538e-22
2.141626380639e-21
2.1607427814399e-22
5.1524304223224e-22
5.1177136988335e-23
1.2294925738434e-22
1.2036726012627e-23
2.9118098091004e-23
2.8126488314713e-24
6.8480505179114e-24
6.5326250784528e-25
1.6001181347767e-24
1.5086707052294e-25
3.7162756259597e-25
3.4656717057856e-26
8.5822949860071e-26
7.921423181768e-27
1.9714685372547e-26
1.8020437927343e-27
4.5061255066281e-27
4.0811815690394e-28
1.0251013742338e-27
9.2037987022003e-29
2.3216256042578e-28
2.0672945208021e-29
5.235777938968e-29
4.6256988304217e-30
1.1760533943609e-29
1.0312666595865e-30
2.6315709464158e-30
2.2911630523463e-31
5.8671064519547e-31
5.0734073635369e-32
1.303545649035e-31
1.1198622977816e-32
2.8866161328714e-32
2.4643857810061e-33
6.3719827529414e-33
5.407368947927e-34
1.4022995184575e-33
1.1831696012128e-34
3.0770993869274e-34
2.5818967892358e-35
6.7332870607942e-35
5.6196054996375e-36
1.4694156719215e-35
1.2200828953379e-36
3.1984401618273e-36
2.6425815459541e-37
6.9446314332236e-37
5.7103103506614e-38
1.504237753354e-37
1.2311696133268e-38
3.2506985951589e-38
2.6487172221666e-39
7.0091344624039e-39
5.6864826571727e-40
1.5080375381371e-39
1.2183483851994e-40
3.2378058942824e-40
2.6052332835036e-41
6.9376045481882e-41
5.560263594212e-42
1.4835971817957e-41
1.1845209456247e-42
3.1666234494088e-42
2.5189088190961e-43
6.7464566612648e-43
5.3472080192332e-44
1.4347546204364e-43
1.1332041752603e-44
3.0459633389655e-44
2.3975972461565e-45
6.4556257587663e-45
5.0646666364261e-46
1.3659636708963e-45
1.0681955900007e-46
2.8856698663993e-46
2.2495407800917e-47
6.0866666990012e-47
4.730393332221e-48
1.2819044267512e-47
9.9329288303273e-49
2.69582764416e-48
2.0828106499205e-49
5.6611585793423e-49
4.3614381684772e-50
1.187164585897e-49
9.1207702212755e-51
2.486131048767e-50
1.9048906719259e-51
5.1994673720187e-51
3.9732109944641e-52
1.0860057486378e-51
8.2821360921058e-53
2.2652130314971e-52
1.706604884993e-53
4.7272111834632e-53
4.0413118372606e-54
9.5654373943972e-54
2.775579047609e-54
0
0
0
0
0
0
0
0
1.7095712857876e-32
1.7139154552819e-33
4.5963515989443e-15
1.7359844367354e-15
9.7725780824796e-14
3.7289738197747e-14
1.1150620937445e-12
4.0029222739774e-13
1.1574146577005e-11
3.7697617918507e-12
1.1016754653124e-10
3.7039162480684e-11
8.8876010319458e-10
3.1980453508599e-10
5.9618312545784e-09
2.3482780539352e-09
3.2763472786921e-08
1.4460269625895e-08
1.5069654029092e-07
7.4005897695183e-08
6.2168150491717e-07
3.2344233839817e-07
2.5174588342409e-06
1.2943423871178e-06
1.0864438202673e-05
5.245637086254e-06
5.2919462027838e-05
2.385033847103e-05
0.00026605382245996
0.00012704197694974
0.0011669976407514
0.00073587621395819
0.0017730813229842
0.00177865173595
0.0014613329222369
0.0017430706430871
0.00037816559288931
0.0011665105840704
4.3046077506617e-05
0.00025892640102757
6.9231179765216e-06
3.4226030097278e-05
1.2994010987101e-06
5.9008941023406e-06
2.4484904467135e-07
1.103695342669e-06
4.6195136940131e-08
2.0789577716936e-07
8.7172328097939e-09
3.9219705405766e-08
1.6448977918979e-09
7.4006919697638e-09
3.1030654443818e-10
1.3965063666075e-09
5.8473127566853e-11
2.6353025600724e-10
1.0987242914466e-11
4.968617814988e-11
2.102780353645e-12
9.3478147642622e-12
5.4106848526265e-13
1.7417352023683e-12
2.4067978642585e-13
4.1022495877986e-13
1.2939816560157e-13
1.6425941806599e-13
5.7341788741459e-14
7.7486190470558e-14
2.1124279600767e-14
3.2418578887043e-14
6.6574386801142e-15
1.1568276075357e-14
1.8974574131025e-15
3.6151787303733e-15
5.1711857604668e-16
1.0398662045108e-15
1.3851368650385e-16
2.8673726944342e-16
3.6626668379048e-17
7.7267026391072e-17
9.5411982320405e-18
2.0456161626589e-17
2.4471018203507e-18
5.3265982182776e-18
6.1874052586994e-19
1.3656591847508e-18
1.5450192642617e-19
3.4528819270179e-19
3.8155653685024e-20
8.6229062317166e-20
9.329487813758e-21
2.1297686392257e-20
2.2605185270092e-21
5.2081063007361e-21
5.431649015098e-22
1.2620530071015e-21
1.2951219547538e-22
3.0328543177353e-22
3.0661447913365e-23
7.2324345860135e-23
7.2110026881564e-24
1.7124731350511e-23
1.6854370411235e-24
4.0279753363785e-24
3.9166527795413e-25
9.4159934444258e-25
9.0522629934641e-26
2.1884331874582e-25
2.0815045422304e-26
5.0587340836697e-26
4.7632237001896e-27
1.16340282905e-26
1.085030129032e-27
2.6627055826386e-27
2.4609542728881e-28
6.0664485677861e-28
5.5588005835608e-29
1.3761562718515e-28
1.2507240933939e-29
3.1089772986417e-29
2.8036574384983e-30
6.9963386192936e-30
6.262465737244e-31
1.568583216182e-30
1.3940912804155e-31
3.5043027924733e-31
3.0933281547837e-32
7.8022766676403e-32
6.8424046879687e-33
1.7315304454189e-32
1.5090183202403e-33
3.8307775951941e-33
3.3184450259111e-34
8.4498053515418e-34
7.2774151609225e-35
1.8584921378196e-34
1.5917216076718e-35
4.0764019346068e-35
3.4725361706749e-36
8.9174460990614e-36
7.5571125824251e-37
1.9457786441419e-36
1.6407101996902e-37
4.2352155580654e-37
3.5539394764542e-38
9.1965331766966e-38
7.6811044095783e-39
1.9923909539462e-38
1.6565491087533e-39
4.3068532887499e-39
3.5651828117245e-40
9.2899244610337e-40
7.6574543712807e-41
1.999680868663e-40
1.6414928515946e-41
4.295699268643e-41
3.5121336767104e-42
9.2099769268304e-42