/*--------------------------------*- C++ -*----------------------------------*\
  =========                 |
  \\      /  F ield         | OpenFOAM: The Open Source CFD Toolbox
   \\    /   O peration     | Website:  https://openfoam.org
    \\  /    A nd           | Version:  7
     \\/     M anipulation  |
\*---------------------------------------------------------------------------*/
FoamFile
{
    version     2.0;
    format      ascii;
    class       volScalarField;
    location    "0.1";
    object      alpha.water;
}
// * * * * * * * * * * * * * * * * * * * * * * * * * * * * * * * * * * * * * //

dimensions      [0 0 0 0 0 0 0];

internalField   nonuniform List<scalar> 
6000
(
0
0
0
0
0
0
0
0
0
0
0
0
0
0
0
0
0
0
0
0
0
0
0
0
0
0
0
0
0
0
0
0
0
0
0
0
0
0
0
0
0
0
0
0
0
0
0
0
0
0
0
0
0
0
0
0
0
0
0
0
0
0
0
0
0
0
0
0
0
0
0
0
0
0
0
0
0
0
0
0
0
0
0
0
0
0
0
0
0
0
0
0
0
0
0
0
0
0
0
0
0
0
0
0
0
0
0
0
0
0
0
0
0
0
0
0
0
0
0
0
0
0
0
0
0
0
0
0
0
0
0
0
0
0
0
0
0
0
0
0
0
0
0
0
0
0
0
0
0
0
0
0
0
0
0
0
0
0
0
0
0
0
0
0
0
0
0
0
0
0
0
0
0
0
0
0
0
0
0
0
0
0
0
0
0
0
0
0
0
0
0
0
0
0
0
0
0
0
0
0
0
0
0
0
0
0
0
0
0
0
0
0
0
0
0
0
0
0
0
0
0
0
0
0
0
0
0
0
0
0
0
0
0
0
0
0
0
0
0
0
0
0
0
0
0
0
0
0
0
0
0
0
0
0
0
0
0
0
0
0
0
0
0
0
0
0
0
0
0
0
0
0
0
0
0
0
0
0
0
0
0
0
0
0
0
0
0
0
0
0
0
0
0
0
0
0
0
0
0
0
0
0
0
0
0
0
0
0
0
0
0
0
0
0
0
0
1.3291301754772e-50
3.5727793874385e-35
6.2370811753959e-36
1.9685750113525e-37
-1.4354264779495e-38
6.0591251377228e-40
3.1249440492141e-40
2.2117156172452e-41
3.0467010600205e-42
4.303322994367e-43
6.0744215915489e-44
8.5683357409812e-45
1.2375211684601e-45
1.7458869837274e-46
3.4515963962131e-47
3.5350444274923e-48
4.931076628556e-49
9.8660704927135e-50
9.9729016339233e-51
1.8968339581872e-51
1.9902012706025e-52
2.6179974202333e-53
3.8033958287844e-54
5.3715825818971e-55
7.609398142978e-56
1.0776057376394e-56
1.5514608508714e-57
2.0582770694164e-58
3.9449189864376e-59
5.7192725548336e-60
8.3958260576667e-61
9.056320219654e-62
1.8288189997698e-62
2.3646677477759e-63
3.1457077166266e-64
4.1095129357318e-65
4.710104406225e-66
8.6361124418724e-67
9.3904697820366e-68
1.310354454569e-68
2.4416876983749e-69
2.615417975434e-70
4.7955621888678e-71
5.1823936696564e-72
8.1533586476473e-73
1.3340641935131e-73
1.4404559859579e-74
2.5328121730865e-75
2.8435280058423e-76
3.9676208658542e-77
7.1829653430347e-78
7.8804914320136e-79
1.4071705175744e-79
1.5560611387622e-80
2.2498786560319e-81
4.6180050515508e-82
5.0838649177361e-83
7.4383276360377e-84
8.5140444232641e-85
1.1878873975899e-85
2.0363470767905e-86
2.3483584958512e-87
2.5883551671898e-88
4.5348522076489e-89
6.3845277264385e-90
1.2407917512915e-90
1.9119023984733e-91
2.7073182063658e-92
3.8068753345005e-93
4.3654275979032e-94
4.9772266669968e-95
6.9321611268894e-96
1.3570177523883e-96
1.7111469658e-97
1.9199431842352e-98
3.5966236493764e-99
5.5768250373207e-100
7.8937188535768e-101
1.1062697433331e-101
1.5543615352204e-102
1.558099543277e-103
2.9630387674284e-104
4.1298789122292e-105
8.3014356810586e-106
0
0
0
0
0
0
0
0
0
1.6906856635043e-27
-1.239523424186e-44
-3.1005107868471e-45
2.7638205781266e-29
0
4.8418883757272e-47
7.3881353389383e-49
3.408509445398e-33
6.8001706662102e-33
3.4117046112725e-33
3.7728521842168e-36
5.4896720755676e-37
1.5830871792578e-36
2.7606073058228e-36
1.9848795117058e-40
2.7985315762474e-41
3.9560869518672e-42
5.5910777413778e-43
7.89994192251e-44
1.117604410164e-44
1.5796501254561e-45
5.5348246956741e-43
3.1824514276054e-47
4.4895911371924e-48
2.3064867302191e-45
9.0357769346008e-50
9.9109131359501e-47
5.8462279528387e-51
2.5437485042265e-52
2.3291545447208e-50
5.0604978628189e-54
7.1412729504624e-55
1.008308505339e-55
4.3621614543696e-56
1.9840487894143e-57
1.0870887359839e-57
3.9596143250772e-59
5.8090943086731e-56
3.5243660862332e-60
1.8013732856005e-57
2.0366108192104e-60
2.2203381089001e-63
4.0148115496821e-60
4.4047867322307e-65
1.4770955933956e-61
8.0347885116958e-66
1.2333148458216e-67
3.8058821721666e-64
2.4550619649073e-69
8.9955352793377e-66
4.8789265735993e-71
8.7076432731931e-71
2.9787228488691e-68
1.3631622256808e-73
7.0203717101229e-70
2.700590184066e-75
3.79101245781e-76
2.2489269284049e-72
7.5133493048383e-78
5.1184982683154e-74
1.487034223282e-79
4.8893900045874e-79
2.2911343486694e-76
1.1963687316371e-80
3.9032061205988e-78
8.2038201453085e-84
1.150086607464e-84
1.677220317279e-80
8.848347141259e-85
3.1509019578711e-87
1.6663873608995e-86
6.2174860268089e-89
7.460458175877e-86
1.452707358406e-85
2.6506556705014e-87
2.9792697630151e-88
4.7949326383407e-88
2.5237627902807e-92
6.8136840512695e-95
1.1578802869647e-91
2.1422908003933e-92
1.8867925003173e-97
3.045989584921e-94
5.7710968030024e-94
1.0272366736995e-95
1.1555589580411e-96
1.8832168308837e-96
9.7679348431974e-101
4.2691982772632e-98
6.9599442460123e-100
2.6847586615568e-100
0
0
0
0
0
0
0
0.00040386533038469
0.0041442341494497
0.02419308608921
0.10287885174602
0.2044055948574
0.16835300697552
0.068582942110751
0.0099741890320313
0.00032917128661255
9.4096813329742e-07
-8.852919518758e-10
-1.1727849389329e-10
-1.3813748210394e-11
1.78634151401e-24
1.9047128554826e-14
6.1870585319036e-14
1.8806169671927e-12
4.7498069925471e-12
2.7631570615217e-12
4.6953680926806e-13
5.4125171143192e-14
7.4870708529422e-15
1.1158776802603e-15
1.6614243332288e-16
2.455882245511e-17
3.6202910869474e-18
5.3272538992207e-19
7.8253286296342e-20
1.1475467614175e-20
1.6801504229247e-21
2.456262987555e-22
3.5858002474068e-23
5.2277474861368e-24
7.6118561789366e-25
1.1069853100301e-25
1.6080301320577e-26
2.3333041621814e-27
3.3821700641551e-28
4.8976406870931e-29
7.0854075469803e-30
1.0241107437609e-30
1.4789371666163e-31
2.1339718871154e-32
3.0766514311246e-33
4.4323299356955e-34
6.3806183457216e-35
9.1787239666643e-36
1.3194773901366e-36
1.8955371367653e-37
2.7213433741655e-38
3.9044920134735e-39
5.5986693280586e-40
8.0232927834522e-41
1.1491481635387e-41
1.6449874464414e-42
2.3535289871142e-43
3.3655325243381e-44
4.8102965499589e-45
6.8719495321789e-46
9.8125993198786e-47
1.4005216759789e-47
1.9980331334134e-48
2.8492318899239e-49
4.0613472163927e-50
5.7867457190165e-51
8.2418589248675e-52
1.173401957823e-52
1.6699500237843e-53
2.3757415111416e-54
3.3786079408599e-55
4.8031153480614e-56
6.8258761486105e-57
9.697223182735e-58
1.3771881609508e-58
1.9552363161813e-59
2.7750344735808e-60
3.937346376924e-61
5.5848026349559e-62
7.9192447012601e-63
1.1226233835948e-63
1.5909677200199e-64
2.2540736571539e-65
3.1926896014682e-66
4.5209476743006e-67
6.4001286994125e-68
9.0580885609547e-69
1.2816668832233e-69
1.8130365483932e-70
2.564087382452e-71
3.6253514479997e-72
5.1296878790184e-73
6.9768417557723e-74
1.4128479749164e-74
0
0
0
0
0
0
0.00068256489880309
0.0093329377405899
0.063680565774364
0.31036530373839
0.69714616825482
0.83966606292748
0.82297013648883
0.68740623488554
0.26206860253798
0.029067557735362
0.00067358678978801
4.0300934552236e-05
6.2804759800539e-06
8.801267433167e-07
1.206567506456e-07
1.6559253143813e-08
2.2793859000276e-09
3.216283331938e-10
4.8370673680888e-11
2.2090851884265e-11
8.1430161629691e-12
1.5581224365602e-12
2.2044632873596e-13
3.1805848064062e-14
4.7357455908559e-15
7.0833003788914e-16
1.0558850408076e-16
1.5692836327744e-17
2.3269057077482e-18
3.4430672229968e-19
5.0846027834142e-20
7.4949008005875e-21
1.1028617949514e-21
1.620194871345e-22
2.3765390794711e-23
3.4808975856749e-24
5.0914323994352e-25
7.4374185778965e-26
1.085091880093e-26
1.5812449070767e-27
2.301676975898e-28
3.3467607714003e-29
4.8613943031274e-30
7.0545976173897e-31
1.0227673841835e-31
1.4814653618058e-32
2.144034763055e-33
3.1003627143732e-34
4.4796831901606e-35
6.4676888489821e-36
9.3310408861648e-37
1.3452458076982e-37
1.93809273317e-38
2.7903518973709e-39
4.0148056467195e-40
5.7729832216619e-41
8.2961175689647e-42
1.1915067448654e-42
1.7103022782767e-43
2.4536430266607e-44
3.5181879252454e-45
5.0419962663421e-46
7.2221782774404e-47
1.0340038688995e-47
1.479688157683e-48
2.116497946279e-49
3.0260104677361e-50
4.3244710794877e-51
6.1774668824779e-52
8.8207877560263e-53
1.2590074689532e-53
1.7962944136807e-54
2.5618820567477e-55
3.652389669189e-56
5.2051739807471e-57
7.4154452271159e-58
1.0560551022826e-58
1.503442054245e-59
2.1396407194204e-60
3.0440530790263e-61
4.3293614686364e-62
6.1554340364971e-63
8.7490231822929e-64
1.2431663692821e-64
1.7659174419703e-65
2.5077576717361e-66
3.5602234391318e-67
5.0529833406241e-68
7.169679344055e-69
1.0170333163754e-69
1.4422862047607e-70
2.0466134574831e-71
2.8003005886761e-72
5.6062275993035e-73
0
0
0
0
0
0.00029155019405305
0.0073483289558959
0.075102028830514
0.44433449664598
0.86277081245409
0.97562310999147
0.99204376509911
0.99260237852644
0.98381508330424
0.89014443955897
0.38972071148829
0.041924778387321
0.0013385099228608
0.00013463461462136
2.1443963489079e-05
3.0341521664448e-06
4.2904293191858e-07
6.0669829857522e-08
8.599683991288e-09
1.2412988350709e-09
1.9398433488422e-10
5.1533631373132e-11
1.4406638642848e-11
2.7932555071845e-12
4.2103683638518e-13
6.2366828653578e-14
9.3669463949516e-15
1.410534632313e-15
2.1182579351116e-16
3.1714343534888e-17
4.735824748241e-18
7.055137315052e-19
1.0487143450874e-19
1.5556576822939e-20
2.3032091122493e-21
3.4038235041681e-22
5.0218284029794e-23
7.3970807016473e-24
1.0879304832905e-24
1.5977892901092e-25
2.3434069815959e-26
3.4325384887184e-27
5.0216895435317e-28
7.3379746173175e-29
1.0710696461961e-29
1.5616939827254e-30
2.2747354900873e-31
3.3101010044345e-32
4.8122074531102e-33
6.9896659911829e-34
1.014361326238e-34
1.4708465360178e-35
2.1310509423023e-36
3.0852095325902e-37
4.4632550098188e-38
6.4521745304701e-39
9.3209123361621e-40
1.3456081835753e-40
1.9413155393285e-41
2.7989806695169e-42
4.0330945967055e-43
5.8079078530879e-44
8.3589453713552e-45
1.2023779661657e-45
1.7286028710551e-46
2.4838237355432e-47
3.5671712477995e-48
5.1204817831852e-49
7.3466126846338e-50
1.0535579716008e-50
1.5101844420295e-51
2.1637489652393e-52
3.0988027940972e-53
4.4360440456801e-54
6.3477100439016e-55
9.0794999579228e-56
1.2981788660573e-56
1.8554056212669e-57
2.6508109659347e-58
3.7858019631218e-59
5.4048025118485e-60
7.713435991816e-61
1.1004373326958e-61
1.5694063316433e-62
2.2374907706119e-63
3.1889362881003e-64
4.5435157701703e-65
6.4714652673093e-66
9.2146806114644e-67
1.3116792182048e-67
1.8665828567845e-68
2.6554515038582e-69
3.7795827032381e-70
5.2024425975502e-71
1.0305015538346e-71
0
0
0
0
0
0.0021551669809291
0.03620110454329
0.34102347875236
0.85942999552608
0.98672729086003
0.99741408432732
0.99928876711632
0.99975173280476
0.99975773208137
0.9967407831852
0.88057419649933
0.29502237626291
0.02203252574115
0.0010324526041333
0.00014293711877789
2.3103243717157e-05
3.4647692902906e-06
5.1933137830396e-07
7.7847548698793e-08
1.1719250263257e-08
1.8163826837248e-09
3.0489985746585e-10
6.8292747471374e-11
1.562987259245e-11
2.7868089880497e-12
4.2494214837508e-13
6.4395305316009e-14
9.8216378638047e-15
1.4961205743469e-15
2.270869298114e-16
3.4353195911453e-17
5.1814313202587e-18
7.7937147957451e-19
1.1693287777771e-19
1.7502581620639e-20
2.6140205096454e-21
3.8959942732762e-22
5.7954212264029e-23
8.6051556179187e-24
1.275511866768e-24
1.8875710750518e-25
2.7890261030799e-26
4.1149690256266e-27
6.0628491960678e-28
8.9209715636893e-29
1.3109903775549e-29
1.9242592632828e-30
2.8211578098823e-31
4.1315427398751e-32
6.0441897917044e-33
8.8333101935818e-34
1.2896913277404e-34
1.8812272047851e-35
2.7416066976356e-36
3.9920118503138e-37
5.8078414279522e-38
8.4428029224679e-39
1.2263643698036e-39
1.7800192717155e-40
2.5817424597933e-41
3.7419184831928e-42
5.419741249438e-43
7.8446713643991e-44
1.1347275997695e-44
1.6403533575208e-45
2.3698453604113e-46
3.4217392349704e-47
4.9377065356161e-48
7.1213435488546e-49
1.0265105766365e-49
1.4788904108159e-50
2.1295390512195e-51
3.0649119356545e-52
4.4089853561136e-53
6.3394683810874e-54
9.1109907094663e-55
1.3088256571023e-55
1.8793431794118e-56
2.6973851675851e-57
3.8698732043987e-58
5.5497258711151e-59
7.955573278746e-60
1.1399885266182e-60
1.6329096957223e-61
2.3380838683114e-62
3.3465529605295e-63
4.7882671266487e-64
6.8486555463584e-65
9.7922318697364e-66
1.3996211042864e-66
1.9998376677665e-67
2.8564954543716e-68
4.0814848979117e-69
5.6572095137461e-70
1.109735708606e-70
0
0
0
0
2.0980159084599e-27
0.0070711902845384
0.12143815773233
0.68005771802531
0.97007607451154
0.99723817987209
0.99935923347286
0.99978075319691
0.99994174776678
0.99997202978643
0.99982860062471
0.98235265748134
0.6566731296108
0.11325957036257
0.004779347939358
0.00041015573782623
6.5920495861505e-05
1.0227574076636e-05
1.551230249754e-06
2.3502892236023e-07
3.5640262668658e-08
5.4605606819329e-09
8.8878175315616e-10
1.9150695085901e-10
4.9686590229848e-11
1.0153083390086e-11
1.6303445895839e-12
2.5204321681956e-13
3.919938622986e-14
6.092333281245e-15
9.4264562512318e-16
1.4520577524607e-16
2.2279647094902e-17
3.4062638693736e-18
5.1906078074987e-19
7.8856364173947e-20
1.1946203176665e-20
1.8050230587895e-21
2.7206404016068e-22
4.0913151445653e-23
6.139304085678e-24
9.1937963154918e-25
1.3741688063161e-25
2.0502188032788e-26
3.0536322687844e-27
4.5407505047652e-28
6.7416749398179e-29
9.9946910101783e-30
1.4796602189721e-30
2.187626339473e-31
3.2301916025408e-32
4.7637734776335e-33
7.017196922456e-34
1.0324916952682e-34
1.5175362453813e-35
2.2281233268373e-36
3.2681648684921e-37
4.789047903149e-38
7.0111599537894e-39
1.0255106088042e-39
1.4986953262099e-40
2.1883765643319e-41
3.1928475378481e-42
4.6547141949745e-43
6.780742932006e-44
9.8705448923982e-45
1.435800922527e-45
2.0871120925257e-46
3.0318277487573e-47
4.401278220106e-48
6.3852313302045e-49
9.2577525464473e-50
1.3414450516515e-50
1.9426096713332e-51
2.8115784053019e-52
4.0669910778153e-53
5.8797751608972e-54
8.496079346171e-55
1.2270220525565e-55
1.771199780091e-56
2.5554612483877e-57
3.6852131385339e-58
5.3119295656317e-59
7.6531994696041e-60
1.1021462917905e-60
1.5865188531242e-61
2.2827857885977e-62
3.2832429050901e-63
4.7202245931536e-64
6.7834064227908e-65
9.744557989207e-66
1.3992944062781e-66
2.0085815554747e-67
2.8838045056895e-68
4.0265010096902e-69
7.838448031486e-70
0
0
0
0
-4.0331039116435e-56
0.010565374803369
0.20934544290013
0.80766773229339
0.9873295587247
0.99886128512931
0.99977881555981
0.99994085500874
0.99997194555724
0.99998236990489
0.99989822300946
0.9893409219065
0.79802991722971
0.19555027337214
0.012064622491994
0.00088672620169214
0.00013567507163173
2.1835544859875e-05
3.2767147000866e-06
4.837558042422e-07
7.1705088028761e-08
1.074411578778e-08
1.7228790325753e-09
3.8208261712172e-10
1.0363807660087e-10
2.2630995114887e-11
3.8634372569565e-12
6.1628193367013e-13
9.8291078720549e-14
1.5647366626839e-14
2.4771260822668e-15
3.8994061125301e-16
6.1074483946047e-17
9.5223397198429e-18
1.4784845589177e-18
2.286770000222e-19
3.5244199167903e-20
5.4140813683376e-21
8.2914940048009e-22
1.2661930238321e-22
1.9284374926973e-23
2.9296857669538e-24
4.4402818124931e-25
6.7147891651324e-26
1.013304107567e-26
1.5260944437293e-27
2.2940435280941e-28
3.4422414102097e-29
5.1562984454406e-30
7.7112821706102e-31
1.1514343065024e-31
1.716744351401e-32
2.555958248224e-33
3.8002259766654e-34
5.6428275411688e-35
8.3683224453804e-36
1.2395255011201e-36
1.8338668821916e-37
2.7101547025651e-38
4.0008460657652e-39
5.900076308218e-40
8.6921467981322e-41
1.279307256777e-41
1.8811135667077e-42
2.7635079933712e-43
4.0562482216376e-44
5.9486484958327e-45
8.7167257003096e-46
1.2762639232754e-46
1.8671958960717e-47
2.7296773039334e-48
3.9876228147337e-49
5.8211267694874e-50
8.4917803376477e-51
1.2379333708391e-51
1.803476052152e-52
2.6257024961069e-53
3.8204085572044e-54
5.5553329297851e-55
8.0733340458911e-56
1.172585721116e-56
1.7021239404276e-57
2.4694399974073e-58
3.5807342846046e-59
5.1894032471661e-60
7.5169150658546e-61
1.0882878193947e-61
1.5748334028509e-62
2.2778065827626e-63
3.2930243064007e-64
4.7585345961776e-65
6.8731518907831e-66
9.9230406668876e-67
1.4327761411206e-67
2.0161272179291e-68
3.9056864091134e-69
0
0
0
0
-1.5494042802324e-45
0.0089447807107852
0.19260857675718
0.79585646355173
0.98667411812152
0.99904321857561
0.99985761152609
0.9999713020655
0.99998237593609
0.99998271410939
0.99971202347507
0.98686674360878
0.78212795475311
0.18932681856451
0.012635436700455
0.0011259465481005
0.00018712373558833
3.1544187101968e-05
4.9709257580415e-06
7.708451451862e-07
1.1927713392057e-07
1.8421300504157e-08
2.9590992264113e-09
6.0566790606822e-10
1.5681717882609e-10
3.5251118640949e-11
6.3368172929419e-12
1.0465713149292e-12
1.7149023431047e-13
2.7982988111299e-14
4.5347765359089e-15
7.2994145104182e-16
1.1677724788852e-16
1.8579521765686e-17
2.9412682171176e-18
4.6350564132051e-19
7.2737219057907e-20
1.1370116475456e-20
1.7709515951739e-21
2.7491067835075e-22
4.2541048783477e-23
6.5635655846074e-24
1.0098715574303e-24
1.5497309647311e-25
2.3723072750358e-26
3.6229759885814e-27
5.5206810847345e-28
8.3946293424746e-29
1.273901423407e-29
1.9294607523031e-30
2.917021718188e-31
4.4023225062796e-32
6.6327713237962e-33
9.9772224276427e-34
1.4984914505458e-34
2.2472710733938e-35
3.365411044192e-36
5.0329853699399e-37
7.5169247199937e-38
1.1212501245676e-38
1.6704449673207e-39
2.4856941749731e-40
3.6945925380562e-41
5.4853619658637e-42
8.1354131753986e-43
1.2053256756294e-43
1.783995713221e-44
2.6379177131065e-45
3.8969021590001e-46
5.75149508535e-47
8.4811862489858e-48
1.2495628714574e-48
1.8394833243626e-49
2.705701763085e-50
3.9766738641141e-51
5.840166715322e-52
8.5704688603907e-53
1.2568008407e-53
1.8417005520904e-54
2.6969323304981e-55
3.9466357609875e-56
5.7716130447907e-57
8.4350458254907e-58
1.2319821667551e-58
1.798268496424e-59
2.6232758300046e-60
3.8245349060695e-61
5.5726822137774e-62
8.1153345625714e-63
1.1811645733188e-63
1.718230309843e-64
2.4981833642845e-65
3.6302951057229e-66
5.2753535502751e-67
7.4837159956696e-68
1.4466711403387e-68
0
0
0
0
0
0.0041105415500971
0.10391182072778
0.68332902370882
0.97654060751932
0.9988432787288
0.99982892870993
0.99996942642101
0.99998236990489
0.99998236990489
0.99858680801504
0.97136196582592
0.6637463674045
0.13098959601481
0.0096763283644531
0.0011699552427706
0.00020095542847684
3.3309319967306e-05
5.276605798343e-06
8.2757377913782e-07
1.2936072701895e-07
2.0309975464296e-08
3.3490092166296e-09
6.8764648760196e-10
1.7604847235484e-10
3.9867162554922e-11
7.3669155306369e-12
1.2570786039156e-12
2.1248243718137e-13
3.573218871015e-14
5.9637951723566e-15
9.8632808659344e-16
1.6189682140475e-16
2.6386764775252e-17
4.2737853647644e-18
6.8832702165891e-19
1.102697202375e-19
1.7582404908656e-20
2.7910300896202e-21
4.411821250254e-22
6.947401713788e-23
1.0901780373063e-23
1.7049809814362e-24
2.6581377242464e-25
4.1319210693438e-26
6.4054310719988e-27
9.904103756558e-28
1.5275532023047e-28
2.3505056248475e-29
3.6087842439029e-30
5.5288420317133e-31
8.4532949426158e-32
1.2899645509365e-32
1.9648217287937e-33
2.9873993213726e-34
4.5344001362403e-35
6.8712088500325e-36
1.0395850105955e-36
1.5704529930972e-37
2.3689272422454e-38
3.5683137583783e-39
5.367599360314e-40
8.0634922721345e-41
1.2097938545625e-41
1.8128533821493e-42
2.7132766673985e-43
4.0562230348802e-44
6.0570541789475e-45
9.0349916015542e-46
1.3462779573056e-46
2.0039910105016e-47
2.9800506546664e-48
4.4272148470477e-49
6.5709523021841e-50
9.7437914483329e-51
1.4435781252276e-51
2.1368571989637e-52
3.1604100442465e-53
4.6703940693304e-54
6.8962791804455e-55
1.0175038365478e-55
1.500118428626e-56
2.2099952700286e-57
3.2534278721688e-58
4.7861081513865e-59
7.0359458853852e-60
1.0336369850195e-60
1.5174899408019e-61
2.2263952072396e-62
3.2644014042829e-63
4.7833890225216e-64
7.0049413536244e-65
1.025212035302e-65
1.5002490223868e-66
2.1461430807137e-67
4.1500439080884e-68
0
0
0
1.2874981379489e-91
-9.2351691736729e-50
0.00051601091601298
0.021062930116148
0.33510124956743
0.88617700663496
0.99556507906919
0.99957638726871
0.99992612790724
0.99996937796595
0.99945261277822
0.98926830288424
0.87456378878098
0.34905330580673
0.044730119416122
0.0051650258753898
0.000896571871772
0.00016094060195176
2.7342526535993e-05
4.5273618494361e-06
7.4220061971139e-07
1.2084490380202e-07
1.9630275424972e-08
3.3276678313206e-09
6.9538977198482e-10
1.7361948649794e-10
3.8325513271947e-11
7.0811888677013e-12
1.2245559969294e-12
2.0950523622881e-13
3.5596021898654e-14
6.0023175933074e-15
1.0074490676314e-15
1.682141025498e-16
2.7949484718382e-17
4.6212208143489e-18
7.6026271466362e-19
1.2450792611844e-19
2.0296930860765e-20
3.2945457028026e-21
5.3262948381391e-22
8.5770109574438e-23
1.375641007814e-23
2.1961965530033e-24
3.4896587600235e-25
5.5263364368667e-26
8.7179255520948e-27
1.370566933983e-27
2.1488438236967e-28
3.3589136338181e-29
5.2354783704995e-30
8.1403816902775e-31
1.2626399819238e-31
1.9537743210333e-32
3.0164769983393e-33
4.647578381348e-34
7.1465619287604e-35
1.0967678764772e-35
1.6800613322712e-36
2.5690829415914e-37
3.9218920155038e-38
5.9772150870359e-39
9.0954226181658e-40
1.3819420323754e-40
2.0966131850493e-41
3.1763618050651e-42
4.8056055902477e-43
7.2609228266066e-44
1.09566406997e-44
1.6512821106627e-45
2.4856511431911e-46
3.7372312071244e-47
5.6126118035234e-48
8.4197480841239e-49
1.2617275929041e-49
1.8887614708391e-50
2.824528218431e-51
4.2197222662024e-52
6.2979937926043e-53
9.3909968359183e-54
1.3990155871588e-54
2.0823070133669e-55
3.0966199270471e-56
4.6010948875653e-57
6.830829563742e-58
1.0132886717711e-58
1.5019262739968e-59
2.2244756176866e-60
3.292137211092e-61
4.8686304804867e-62
7.1948445113653e-63
1.0624991351128e-63
1.5679600000422e-64
2.3123061797223e-65
3.4091528890739e-66
4.9186434812962e-67
9.5340809444664e-68
0
0
0
8.7622616363106e-34
2.2365603846426e-32
4.2733580770232e-06
0.00097471746653948
0.041322641536518
0.38864771132353
0.88859260123006
0.99511911014233
0.99838446646331
0.99594921033082
0.98116724491985
0.87420029845779
0.41684449703201
0.070829502154614
0.010483792495827
0.0021376486938416
0.00043305263811219
8.1412519527431e-05
1.4761065131147e-05
2.6247382407671e-06
4.5937324861336e-07
7.9370206880505e-08
1.3683339443411e-08
2.5162837193332e-09
5.6984462626961e-10
1.4091718288311e-10
3.0113413321289e-11
5.6091019031643e-12
1.000579954919e-12
1.764086114037e-13
3.0801048020508e-14
5.3256012931127e-15
9.1181761660525e-16
1.5475384504084e-16
2.6068374737853e-17
4.3612963370889e-18
7.2526885913252e-19
1.1993912973085e-19
1.9732408901569e-20
3.2308873755048e-21
5.2662716885896e-22
8.5471874517857e-23
1.3820942172339e-23
2.230233410713e-24
3.5947549116258e-25
5.77663973269e-26
9.262485598489e-27
1.4817312139961e-27
2.3630116936567e-28
3.7591942499482e-29
5.9660187306868e-30
9.4431624816587e-31
1.4909558491304e-31
2.3485836388035e-32
3.6903075737109e-33
5.7816682504765e-34
9.0239214703615e-35
1.4051872782954e-35
2.1837420683765e-36
3.3849132829429e-37
5.2357568015456e-38
8.0845874356303e-39
1.2458330652519e-39
1.9161494917884e-40
2.9422010530763e-41
4.5103934103377e-42
6.9030666321804e-43
1.0548241427782e-43
1.6094856102199e-44
2.4523272693928e-45
3.7312933509486e-46
5.6695966985598e-47
8.6036860433548e-48
1.303974177436e-48
1.9738681499834e-49
2.9843723841827e-50
4.5070086509483e-51
6.7988382279464e-52
1.0244810133509e-52
1.5420915479886e-53
2.3188169054962e-54
3.4832413543504e-55
5.2272315523213e-56
7.8368445651953e-57
1.1738225168545e-57
1.7565686144288e-58
2.6262650278515e-59
3.923120344932e-60
5.8553509553163e-61
8.7319391456025e-62
1.3011071501284e-62
1.9371706203396e-63
2.8819250100064e-64
4.2841349351569e-65
6.3662846991133e-66
9.2650427243346e-67
1.8032339926245e-67
0
0
0
1.1085279391864e-34
5.9914658949691e-33
-1.2779636667048e-10
6.5979350307674e-06
0.00078023407105517
0.037173369759676
0.25126812320522
0.64312432782531
0.81679901885591
0.79709248514035
0.65470292912713
0.30979334579165
0.064949917669135
0.01122821214054
0.0026312549151551
0.00063632197164717
0.00013840731950899
2.8034263694449e-05
5.4852397602618e-06
1.0480860068452e-06
1.9608185338546e-07
3.611101734245e-08
6.728366107818e-09
1.4101675395762e-09
3.5448792313313e-10
8.5844591646546e-11
1.7791231791384e-11
3.373395097792e-12
6.2368806543381e-13
1.1380609020354e-13
2.0514803126638e-14
3.6567085464684e-15
6.4490304495877e-16
1.1267695864137e-16
1.9513856040647e-17
3.3526483092957e-18
5.7182417041685e-19
9.6870208847441e-20
1.6309431942033e-20
2.7302150362189e-21
4.546084211913e-22
7.5327556126486e-23
1.2422566504177e-23
2.0385284972766e-24
3.3281377759774e-25
5.410884443094e-26
8.7636229829039e-27
1.4141359841987e-27
2.2745491044583e-28
3.6470722291629e-29
5.8302479364198e-30
9.294014660777e-31
1.4775350602316e-31
2.3426983788212e-32
3.7062132168898e-33
5.8547668115564e-34
9.2531969561715e-35
1.4600862192768e-35
2.2987326553089e-36
3.6148765838365e-37
5.6750351674569e-38
8.8903003313615e-39
1.3904493990239e-39
2.1711738510705e-40
3.3841019514484e-41
5.2652119105309e-42
8.1782397549171e-43
1.267957494025e-43
1.9601925488854e-44
3.0230359807495e-45
4.6554279691111e-46
7.158095275219e-47
1.0985264332265e-47
1.6833025714852e-48
2.576077674048e-49
3.9366555793127e-50
6.0071558859227e-51
9.1547776800407e-52
1.393466258284e-52
2.1184144984211e-53
3.2165802949787e-54
4.8785302365409e-55
7.3908943366397e-56
1.1184815093325e-56
1.6908195960301e-57
2.5534111660945e-58
3.8521721854248e-59
5.8057808593953e-60
8.7417414896186e-61
1.3150134534938e-61
1.9763544385816e-62
2.9676249115681e-63
4.4521637568919e-64
6.6735906222253e-65
9.9987095181022e-66
1.4679797764957e-66
2.8726533055359e-67
0
0
0
1.2380276208571e-36
2.4499064157922e-33
-8.2765286404526e-12
2.6807443331659e-07
1.7240805675655e-05
0.00057508637684199
0.013910520752183
0.08735917333687
0.17066127443167
0.16694686782542
0.11483252093071
0.040855166091938
0.0099032607233356
0.0023979312762136
0.00059607460361219
0.00014602057427639
3.40804590316e-05
7.5148280031636e-06
1.5846362646263e-06
3.2367192921409e-07
6.4546095708857e-08
1.2761395516868e-08
2.6708249479449e-09
6.6158261741688e-10
1.740040227678e-10
4.0181288567314e-11
8.2065097489034e-12
1.6016541759616e-12
3.0696293901473e-13
5.7961259666319e-14
1.0794172974829e-14
1.9850842388415e-15
3.6094319987071e-16
6.4949644083207e-17
1.1576039780051e-17
2.0450754910206e-18
3.5834539064894e-19
6.2314619052597e-20
1.0759881750775e-20
1.8456886894657e-21
3.1465228977982e-22
5.3333976228492e-23
8.9917606986207e-24
1.5079510113175e-24
2.5159488867809e-25
4.1789636918376e-26
6.9093825437135e-27
1.1375619515276e-27
1.8656708497172e-28
3.0482086925153e-29
4.9624718521606e-30
8.0522202008165e-31
1.3024701943355e-31
2.1004887422309e-32
3.377255526542e-33
5.4135200808806e-34
8.6455674894349e-35
1.3765889562453e-35
2.1867703164155e-36
3.4648818662182e-37
5.4770668334684e-38
8.639588380835e-39
1.3599740260044e-39
2.1363869317783e-40
3.3495313049957e-41
5.241545952843e-42
8.1873308552499e-43
1.2770842682837e-43
1.9926571316015e-44
3.1090881235519e-45
4.8433161252604e-46
7.5337766071015e-47
1.170916773082e-47
1.8175433846786e-48
2.8167503494116e-49
4.3595725105144e-50
6.7392399114559e-51
1.0403906475633e-51
1.6039349493659e-52
2.4692657373564e-53
3.796255148943e-54
5.8204882183196e-55
8.9084160195578e-56
1.3620791566468e-56
2.0801174529697e-57
3.1717830193268e-58
4.8304263967501e-59
7.3490074502065e-60
1.1168680856456e-60
1.6954006222996e-61
2.5708452918096e-62
3.89446558853e-63
5.8938331128238e-64
8.9108166339583e-65
1.3464437220479e-65
1.9944907819484e-66
3.928338359487e-67
0
0
0
-1.018975319282e-37
5.5537052673638e-36
-4.3462960109043e-13
2.194016860722e-08
1.2831015830712e-06
2.182657126913e-05
0.00018307138862303
0.0013831402624147
0.0056651277056042
0.0073160973430946
0.0062556262050262
0.0039919473298639
0.0016776910978195
0.00048966276396587
0.00012197099023621
2.9912503310787e-05
7.2946663643482e-06
1.7185599936359e-06
3.8746153955911e-07
8.422588985753e-08
1.7926785202852e-08
3.9167246081524e-09
9.7662338025988e-10
2.704133469226e-10
6.8498350366689e-11
1.5137807517332e-11
3.1342680053926e-12
6.3316491809483e-13
1.2566170418445e-13
2.4537022316408e-14
4.7204055919007e-15
8.9586733192684e-16
1.6792267829204e-16
3.1117921253317e-17
5.7061070288588e-18
1.0361829726267e-18
1.8646825425003e-19
3.327499539533e-20
5.8913727238893e-21
1.0354305180341e-21
1.8072999788552e-22
3.1341724343237e-23
5.4021009929207e-24
9.2580408187701e-25
1.5781253112765e-25
2.676299122479e-26
4.5166770489373e-27
7.5874684596949e-28
1.2690097469116e-28
2.1135445902198e-29
3.5060774436051e-30
5.7940025300418e-31
9.540264846199e-32
1.5654549397237e-32
2.5603153722211e-33
4.1737997226844e-34
6.7806324551401e-35
1.0983762615932e-35
1.7741564275624e-36
2.8573803810268e-37
4.5896794757224e-38
7.3539279376306e-39
1.1753711323747e-39
1.8741259982182e-40
2.98167738659e-41
4.7337960425187e-42
7.5000295392789e-43
1.1856654269586e-43
1.869558379388e-44
2.9401608897335e-45
4.6148916361698e-46
7.2309034913855e-47
1.1308457704867e-47
1.7654733445932e-48
2.7519446943341e-49
4.2829370446208e-50
6.6553751104724e-51
1.0326518387859e-51
1.599908814127e-52
2.4756408544838e-53
3.8260710699009e-54
5.9197345601338e-55
9.1578119533553e-56
1.4146247590033e-56
2.1825545919258e-57
3.3653979422604e-58
5.1842803090079e-59
7.9759985520415e-60
1.2257069133455e-60
1.8817519300216e-61
2.885949101469e-62
4.4211752439309e-63
6.7649631598627e-64
1.0339724188461e-64
1.5770891748755e-65
2.3578031357073e-66
4.6806498312299e-67
0
0
0
-4.9900251435174e-39
1.0729069714147e-36
-2.7108214674957e-14
1.4947980727363e-09
8.9852054490624e-08
1.6650032140983e-06
1.0134149433301e-05
3.7959150058498e-05
8.9653422185172e-05
0.0002140472004108
0.00034622293912184
0.00034151297204527
0.00021446901802368
7.7885910716207e-05
2.1940325794473e-05
5.6680153303437e-06
1.4349967831388e-06
3.5428653519488e-07
8.4422696575255e-08
1.9525459074729e-08
4.5541679075622e-09
1.1765647707927e-09
3.3961401015102e-10
9.2509818186386e-11
2.2017759983009e-11
4.8449479370742e-12
1.0338007123501e-12
2.1610742500471e-13
4.4341862040491e-14
8.9438822777107e-15
1.7759659022475e-15
3.476109893766e-16
6.7141573497712e-17
1.2810425327851e-17