/*--------------------------------*- C++ -*----------------------------------*\
  =========                 |
  \\      /  F ield         | OpenFOAM: The Open Source CFD Toolbox
   \\    /   O peration     | Website:  https://openfoam.org
    \\  /    A nd           | Version:  7
     \\/     M anipulation  |
\*---------------------------------------------------------------------------*/
FoamFile
{
    version     2.0;
    format      ascii;
    class       surfaceScalarField;
    location    "0.1";
    object      alphaPhi0.water;
}
// * * * * * * * * * * * * * * * * * * * * * * * * * * * * * * * * * * * * * //

dimensions      [0 3 -1 0 0 0 0];

internalField   nonuniform List<scalar> 
11840
(
0
0
0
0
0
0
0
0
0
0
0
0
0
0
0
0
0
0
0
0
0
0
0
0
0
0
0
0
0
0
0
0
0
0
0
0
0
0
0
0
0
0
0
0
0
0
0
0
0
0
0
0
0
0
0
0
0
0
0
0
0
0
0
0
0
0
0
0
0
0
0
0
0
0
0
0
0
0
0
0
0
0
0
0
0
0
0
0
0
0
0
0
0
0
0
0
0
0
0
0
0
0
0
0
0
0
0
0
0
0
0
0
0
0
0
0
0
0
0
0
0
0
0
0
0
0
0
0
0
0
0
0
0
0
0
0
0
0
0
0
0
0
0
0
0
0
0
0
0
0
0
0
0
0
0
0
0
0
0
0
0
0
0
0
0
0
0
0
0
0
0
0
0
0
0
0
0
0
0
0
0
0
0
0
0
0
0
0
0
0
0
0
0
0
0
0
0
0
0
0
0
0
0
0
0
0
0
0
0
0
0
0
0
0
0
0
0
0
0
0
0
0
0
0
0
0
0
0
0
0
0
0
0
0
0
0
0
0
0
0
0
0
0
0
0
0
0
0
0
0
0
0
0
0
0
0
0
0
0
0
0
0
0
0
0
0
0
0
0
0
0
0
0
0
0
0
0
0
0
0
0
0
0
0
0
0
0
0
0
0
0
0
0
0
0
0
0
0
0
0
0
0
0
0
0
0
0
0
0
0
0
0
0
0
0
0
0
0
0
0
0
0
0
0
0
0
0
0
0
0
0
0
0
0
0
0
0
0
0
0
0
0
0
0
0
0
0
0
0
0
0
0
0
0
0
0
0
0
0
0
0
0
0
0
0
0
0
0
0
0
0
0
0
0
0
0
0
0
0
0
0
0
0
0
0
0
0
0
0
0
0
0
0
0
0
0
0
0
0
0
0
0
0
0
0
0
0
0
0
0
0
0
0
0
0
0
0
0
0
0
0
0
0
0
0
0
0
0
0
0
0
0
0
0
0
0
0
0
0
0
0
0
0
0
0
0
0
0
0
0
0
0
0
0
0
0
0
0
0
0
0
0
0
0
0
0
0
0
0
0
0
0
0
0
0
0
0
0
0
0
0
0
0
0
0
0
0
0
0
0
0
0
0
0
0
0
0
0
0
0
0
0
0
0
0
0
0
0
0
0
0
0
0
0
0
0
0
0
0
0
0
0
0
0
0
0
0
0
0
0
0
0
0
0
0
0
0
0
0
0
0
0
0
0
0
0
0
0
0
0
0
0
0
0
0
0
0
0
0
0
0
0
0
0
0
0
0
0
0
0
0
0
0
0
0
0
0
0
0
0
0
0
0
0
0
0
0
0
0
0
0
0
0
0
0
0
0
0
0
0
0
0
0
0
0
0
0
0
0
0
0
0
0
0
0
0
0
0
0
0
0
0
0
0
0
0
0
0
0
1.2027441195415e-52
-5.0494004842794e-52
1.0238772540829e-37
-3.1977282320177e-37
1.0894787627853e-38
3.1809481976573e-38
7.646954740676e-40
6.9824070059488e-39
7.2661706765213e-41
8.3620141599575e-40
1.3709939131578e-41
5.3384083387235e-41
2.3527799045228e-42
7.3385489276536e-42
3.3002100151972e-43
1.7685111681668e-42
4.6664753902547e-44
2.4895344998462e-43
6.5995082743369e-45
3.5172942536825e-44
9.3298977144786e-46
4.9711016335673e-45
1.317129261285e-46
7.0251247584723e-46
1.8046388811907e-47
9.9334374311726e-47
1.9692839337857e-48
1.4043201889707e-47
3.7659566259189e-49
1.1330500491241e-48
5.1437659846111e-50
2.8280686030831e-49
5.5927495033922e-51
3.9952060946245e-50
1.0379850689381e-51
3.2209653918162e-51
1.1206414024955e-52
8.0368457998095e-52
2.1522465594116e-53
6.4534082028955e-53
2.9490007753484e-54
1.6092064388654e-53
3.4546847882403e-55
2.2707498137833e-54
6.0365290886579e-56
2.3742138824199e-55
8.5009690170747e-57
4.5132514196112e-56
1.1980471494278e-57
6.3661390838357e-57
1.6944099492346e-58
8.9843489816589e-58
2.3379619400207e-59
1.2678759858851e-58
2.4433215646973e-60
1.7780460775157e-59
3.4734234745653e-61
1.4336315696078e-60
4.9004020089499e-62
2.0163464819172e-61
6.9258917719061e-63
2.798484316227e-62
9.8208760722069e-64
4.7395346852653e-63
1.4003476804943e-64
5.6475283600142e-64
1.9432847401134e-65
7.899620496901e-65
2.7387902281104e-66
1.1250033884448e-65
5.1062775569231e-67
1.5640698505559e-66
5.4584072117246e-68
3.9335894130647e-67
1.0533647430523e-68
3.1292593116131e-68
1.4337352962727e-69
7.8188852432978e-69
1.5276443340027e-70
1.1022398981375e-69
2.8596332595075e-71
8.7658798454641e-71
3.0338121292158e-72
2.1934561317263e-71
5.6890769674546e-73
1.7422031126842e-72
6.0091380062856e-74
4.3605822583297e-73
8.5103481558801e-75
3.9438943856414e-74
1.5928375845342e-75
4.8704523441973e-75
1.6815731670119e-76
1.2190916906162e-75
3.2698954114777e-77
9.6419428121812e-77
4.4352928372577e-78
2.4161961173153e-77
4.6853404253843e-79
3.3941910209727e-78
8.8046995208209e-80
2.6851151534189e-79
9.2674699380458e-81
6.725201064247e-80
1.7440684201445e-81
5.314701503054e-81
1.8272513473754e-82
1.3314113883148e-81
2.5872447486288e-83
1.2255350201976e-82
3.6933480067082e-84
1.4904323615131e-83
5.1278671141314e-85
2.3704787984144e-84
9.9936337896094e-86
2.9323642002172e-85
1.3529336087767e-86
7.3523498319273e-86
1.4177841922398e-87
1.0312884222583e-86
2.7685075240375e-88
8.1097696079563e-88
3.7799730924968e-89
2.0308390202541e-88
5.4026300512818e-90
2.8389036493546e-89
7.3313790466536e-91
3.9731015726314e-90
7.6846861311435e-92
5.57898878465e-91
1.0950330286976e-92
4.5516273862889e-92
1.5502946667826e-93
6.250088473452e-93
2.1882610019146e-94
8.8360339472186e-94
3.0754490563665e-95
1.2483089912361e-94
5.9621018702638e-96
1.7439298427243e-95
8.065025867562e-97
4.3632884880326e-96
8.4083435943209e-98
6.1204332407332e-97
1.1914928055945e-98
4.9078095347618e-98
2.2371160655019e-99
6.7623334930391e-99
2.3229844643826e-100
1.6947882944288e-99
3.3015670698207e-101
1.3817710457894e-100
4.6659747970157e-102
1.8850021132931e-101
6.571411441612e-103
2.6588869949775e-102
9.257666149574e-104
3.7474346006311e-103
1.2963893802828e-104
5.280635935238e-104
1.8051983621583e-105
8.5031426092916e-105
2.5666652770146e-106
1.0386065368516e-105
3.9106622184294e-107
1.4577664447136e-106
2.462498947119e-107
0
0
0
0
0
0
0
0
0
0
0
0
0
0
0
0
0
0
7.7812656639015e-30
0
1.06764802973e-30
6.7136176341715e-30
1.426381341359e-31
9.250098955941e-31
1.2781540391126e-31
0
1.7537232379432e-32
1.1027817153183e-31
2.4062398593491e-33
1.5130992520083e-32
1.6507708101984e-34
2.2411627783293e-33
5.7111382045064e-35
9.5406289989345e-35
3.1411288911032e-35
3.4084954880676e-37
1.6132310999266e-35
2.7208679619593e-36
2.2237917560839e-36
1.3879140366621e-35
3.0487530931881e-37
1.9141323530743e-36
4.0473249743671e-38
2.540615844134e-37
1.5127479716073e-38
4.2721534800734e-39
1.9914676324175e-39
1.3135673420311e-38
2.7333158096581e-40
1.7180867613169e-39
3.7515441701508e-41
2.3580885729894e-40
5.1491324394718e-42
3.2365238359158e-41
7.0674357549917e-43
4.4422317388997e-42
9.7004914483873e-44
6.0971552239927e-43
8.4595965667046e-45
8.8541931793362e-44
3.3194296465051e-45
0
4.5554718363233e-46
2.8638063272355e-45
3.9048899279967e-47
4.1648732035246e-46
1.4347626597005e-47
0
1.2906344239049e-48
1.3056749774624e-47
6.8120364235859e-50
0
6.8064059355705e-50
0
1.6211586870148e-51
6.644215447765e-50
1.3346360123732e-51
0
1.8313694801932e-52
1.151483574357e-51
2.6153052968011e-53
1.6443895824082e-52
6.6046342199593e-55
3.430762082644e-53
6.583935076106e-55
1.1726578075028e-57
6.4092675072516e-57
6.5197779551346e-55
6.3989473161558e-57
0
1.0505608158417e-57
5.3481000739899e-57
2.8121752634819e-59
0
2.8076795094521e-59
0
6.6632479589638e-61
0
6.7179953065214e-61
0
1.0631544509582e-61
5.6546728503815e-61
3.017442316036e-62
0
2.5744087696365e-63
2.759984559987e-62
1.1220935743647e-64
0
1.1208409042164e-64
0
9.176123141843e-66
1.0290746192164e-64
2.7380757043306e-66
0
2.2369299220652e-67
2.5143721703098e-66
6.8878611862062e-68
0
7.4095817285467e-70
6.8137435539755e-68
7.3950568376088e-70
0
2.1719088065002e-70
0
1.7699326627497e-71
1.9949091010899e-70
5.1555066737983e-72
0
7.0738145258866e-73
4.4481120318103e-72
5.7559413635846e-74
6.4982016870643e-73
1.6632047649367e-74
0
1.3507765875478e-75
1.5281232731537e-74
4.0301494552029e-76
0
4.4559369042804e-78
3.9855822711052e-76
4.4470305809783e-78
0
1.0649411874303e-79
0
1.0627034458107e-79
0
3.1197162857311e-80
0
4.103278733455e-81
2.7093837879489e-80
3.4245144486895e-82
3.7608207536808e-81
1.3563933953116e-83
0
1.3546817260783e-83
0
2.5537600576827e-85
1.3291422931829e-83
2.5505380643796e-85
0
4.4358611944441e-87
2.5061757443935e-85
2.973576760084e-87
0
7.0145634877804e-89
0
1.6220227970797e-89
0
1.0166490002203e-89
0
3.9392611494927e-91
0
3.9341679453872e-91
0
3.8669514619007e-93
3.8954940000616e-91
1.5054077915056e-93
0
1.0586138175055e-93
0
1.8485303995821e-95
1.0401272470484e-93
1.2260615557794e-95
0
2.8125078659146e-97
0
6.4956185495095e-98
0
4.0649811797029e-98
0
9.3394412319556e-100
0
9.3189461671538e-100
0
2.0827832652682e-101
0
5.813215855905e-102
0
0
0
0
0
0
0
0
0
0
0
0
0
0
0
0
4.9869487845495e-06
3.0476077436921e-06
4.7286057084285e-05
3.2988263615208e-05
0.00026316690867703
0.00021053482413984
0.00088917810347065
0.00084964841045587
0.001031229692582
0.0014210269124905
0.00067171168096806
0.0012767223641407
0.00016452877493901
0.00058836732884177
1.575859999375e-05
0.00010946290415086
1.484160115219e-06
1.0734054478743e-05
1.9998705785405e-07
1.2671501667328e-06
2.7522171182111e-08
1.7246575048907e-07
3.7894297389464e-09
2.3732859016304e-08
5.2154077672146e-10
3.2679097661043e-09
7.167023671314e-11
4.4987054000832e-10
9.7929134862036e-12
6.1877874472854e-11
1.3257935275611e-12
8.4689105648991e-12
2.11966003414e-13
1.1347651245818e-12
5.0310126397481e-14
1.5937797131746e-13
9.7813268282536e-15
2.8734343340071e-14
1.3298461171248e-15
4.7316123101977e-15
1.9503523803102e-16
7.1898422553853e-16
3.008232637925e-17
1.1047941982671e-16
4.6307943633336e-18
1.7033332307429e-17
7.0662379393662e-19
2.6123379690219e-18
1.072543121483e-19
3.9840818739714e-19
1.6212853589943e-20
6.0473473282276e-20
2.4416539104433e-21
9.1408390999134e-21
3.6646278789572e-22
1.3764954214364e-21
5.4831238436804e-23
2.0657860726851e-22
8.1807407439009e-24
3.090651760555e-23
1.2173697523237e-24
4.6108709269895e-24
1.8071917103474e-25
6.8609303036128e-25
2.6767882621664e-26
1.0184431030435e-25
3.9565752660248e-27
1.5084136871826e-26
5.8368781964601e-28
2.2294696949903e-27
8.5951107174193e-29
3.2888206329206e-28
1.2635149899197e-29
4.8427280591555e-29
1.8544329499834e-30
7.1186820500155e-30
2.717586226911e-31
1.0447499846518e-30
3.9767937045456e-32
1.5309745532532e-31
5.8115670641603e-33
2.240280392078e-32
8.4819178385548e-34
3.2737720538712e-33
1.2364119122134e-34
4.7778908889086e-34
1.8002222245124e-35
6.9645550031213e-35
2.6182217635568e-36
1.0140171752401e-35
3.8038721319625e-37
1.474740244757e-36
5.520835243319e-38
2.1425244014514e-37
8.005009723309e-39
3.1095404843895e-38
1.1596172271767e-39
4.508640424341e-39
1.6783383688907e-40
6.5311762408148e-40
2.4270110245597e-41
9.452570634531e-41
3.5067569050349e-42
1.3668990316557e-41
5.0628457892941e-43
1.9749913755914e-42
7.3038441244286e-44
2.851344158781e-43
1.0529019741864e-44
4.1134132673055e-44
1.5167543057011e-45
5.9297334983721e-45
2.1834535707696e-46
8.5419949311166e-46
3.141116973435e-47
1.2296607097582e-46
4.5159085423445e-48
1.7689807504066e-47
6.4883759417563e-49
2.5432097200538e-48
9.3167664471511e-50
3.6540243522794e-49
1.3370289638842e-50
5.2468587378672e-50
1.9176550697265e-51
7.5296367738016e-51
2.7489164242302e-52
1.0799485153483e-51
3.9384096964785e-53
1.5480811619917e-52
5.6396893512701e-54
2.2179562777616e-53
8.0718061881883e-55
3.1760506794846e-54
1.1547116661027e-55
4.5457270963696e-55
1.6510849998686e-56
6.5028959801059e-56
2.3597384800035e-57
9.2982992860465e-57
3.371026447006e-58
1.3289205067509e-57
4.8135927355773e-59
1.8984471940259e-58
6.8705304848227e-60
2.7108602033884e-59
9.8023361638757e-61
3.869275391959e-60
1.3979504217855e-61
5.520402191916e-61
1.9928797256192e-62
7.8729013770138e-62
2.8398909935472e-63
1.1223445297986e-62
4.0453627946535e-64
1.5993701313317e-63
5.7603957087655e-65
2.2782801544105e-64
8.199547162567e-66
3.244176231057e-65
1.1667388591379e-66
4.6179005803455e-66
1.6596140789569e-67
6.5709941368197e-67
2.3598994511812e-68
9.3468945783433e-68
3.3545633787229e-69
1.3290969310064e-68
4.7669179829914e-70
1.8893054583332e-69
6.7717589733852e-71
2.6847693082735e-70
9.6167936261938e-72
3.8139412070384e-71
1.3652961290535e-72
5.4163421629988e-72
1.9377316579511e-73
7.6896404491134e-73
2.7494621821901e-74
1.091379965519e-73
3.8913884895868e-75
1.5486484682252e-74
5.9852961666622e-76
2.1852555762948e-75
3.7316150040422e-76
0
0
0
0
0
0
0
0
0
0
0
0
9.7107724212497e-06
4.4131458023225e-06
0.00012617850651806
6.6286076990464e-05
0.00088101713642139
0.0005057432284291
0.0031210081518587
0.0016845791566604
0.0042386637768177
0.0023180673251272
0.0040928161969216
0.0024280160483687
0.0036619405626423
0.0024162904729429
0.0022315701974466
0.0022747793537679
0.00046196535430748
0.0014465333476425
3.7171609974521e-05
0.00031219336972041
4.3575011368381e-06
2.986987745377e-05
6.1535372965549e-07
3.8375586630908e-06
8.8090533230342e-08
5.451116467824e-07
1.2515636381862e-08
7.7461891073829e-08
1.7763885368326e-09
1.099804761764e-08
2.5170961996004e-10
1.5601859257726e-09
3.5538934759972e-11
2.2101365762922e-10
5.0344954859481e-12
3.1162131663822e-11
8.3379769454096e-13
4.2892226919973e-12
1.7465674504942e-13
6.1614853063173e-13
3.275352974635e-14
1.0116118932331e-13
5.0408335669142e-15
1.6829989597606e-14
7.6999024115246e-16
2.6641671207125e-15
1.1936426216215e-16
4.1650383578821e-16
1.8486991721851e-17
6.4841298934734e-17
2.8455451619135e-18
1.0037821679104e-17
4.3555784609818e-19
1.5448816831184e-18
6.6360467516757e-20
2.3652763299809e-19
1.0069010284827e-20
3.6046239296534e-20
1.5221143789591e-21
5.4706563922327e-21
2.293172080327e-22
8.271698301358e-22
3.4441436107e-23
1.2464475028798e-22
5.1581119962039e-24
1.8724263936658e-23
7.7047922441956e-25
2.8047702704486e-24
1.1480899120935e-25
4.1903264770896e-25
1.7069079096162e-26
6.245122874404e-26
2.5323846684154e-27
9.2864855163849e-27
3.7496764474668e-28
1.3779880609326e-27
5.541859999301e-29
2.040715734089e-28
8.1764131303285e-30
3.0165866429595e-29
1.2043673664916e-30
4.451366239139e-30
1.7712644458334e-31
6.557805528754e-31
2.6011897295909e-32
9.6460808573522e-32
3.8146765637429e-33
1.4167930359749e-32
5.586896598803e-34
2.0780596147882e-33
8.1721911549904e-35
3.0439384754439e-34
1.1939522848171e-35
4.4531549677184e-35
1.7423671491514e-36
6.5069797670773e-36
2.5399114540869e-37
9.4971768371843e-37
3.6986571138493e-38
1.3846340080575e-37
5.3806549970638e-39
2.016607073028e-38
7.820049691021e-40
2.9340831190107e-39
1.1354910731907e-40
4.2648730599889e-40
1.647302203591e-41
6.193540061417e-41
2.3877712154987e-42
8.9864147002079e-42
3.4582443506808e-43
1.3027562890841e-42
5.0046650200714e-44
1.8870473063269e-43
7.237070873492e-45
2.7312291827335e-44
1.0457563895674e-45
3.9500388203167e-45
1.5100415604918e-46
5.7085245983438e-46
2.1789544217237e-47
8.2439714811446e-47
3.1420849464242e-48
1.1897326731664e-47
4.5280100868657e-49
1.715822158369e-48
6.5211655860793e-50
2.4729441071578e-49
9.3859817811326e-51
3.5619201353948e-50
1.3501396026135e-51
5.1273170389061e-51
1.9410182262164e-52
7.376326799601e-52
2.7889430343802e-53
1.060575516775e-52
4.0051202784772e-54
1.5240585489695e-53
5.7486234097896e-55
2.188906030329e-54
8.246900039572e-56
3.1421324911024e-55
1.1825025999457e-56
4.50816690693e-56
1.6947422332309e-57
6.4648660830028e-57
2.4277323549835e-58
9.2663524203712e-58
3.4761521097741e-59
1.3275572774839e-58
4.9751083352405e-60
1.9010700075153e-59
7.1173268067415e-61
2.7211240515264e-60
1.0177625594516e-61
3.8932183279256e-61
1.454774404732e-62
5.567804447843e-62
2.0785893742879e-63
7.9593648533416e-63
2.9687232636849e-64
1.1373557718746e-63
4.238406708591e-65
1.6245827587494e-64
6.0488279783491e-66
2.3196308161472e-65
8.6293719344464e-67
3.3107868769455e-66
1.2306371341336e-67
4.7237028295798e-67
1.7543939378095e-68
6.737153305512e-68
2.5001943970911e-69
9.6054168611432e-69
3.5618298118668e-70
1.3690055816988e-69
5.0725734463601e-71
1.9505029437927e-70
7.2217438568814e-72
2.7780717922266e-71
1.0278522291057e-72
3.9554718331106e-72
1.4592744245395e-73
5.6304826563425e-73
2.2511098234114e-74
7.9711436912746e-74
1.364947083432e-74
0
0
0
0
0
0
0
0
0
0
4.609863484505e-06
1.6462983527062e-06
0.00011385513896649
4.2546897647334e-05
0.0011563734462776
0.00052187177430405
0.0038998101702641
0.0019640993255284
0.0048014683383297
0.0024353667745209
0.0049228718140549
0.0024889502479758
0.0049306334451458
0.0024966364642443
0.0049104145325379
0.0024963235595046
0.0047391980418885
0.0024899352677692
0.0034140401104561
0.0024438460059628
0.00066598579139397
0.0017661746250694
4.4936378097293e-05
0.00036770071568076
5.645425247648e-06
3.6192684783696e-05
8.5023613263449e-07
5.0033633091819e-06
1.2508986190541e-07
7.4223874429904e-07
1.8351429647433e-08
1.0911016590237e-07
2.686781691977e-09
1.5994042235262e-08
3.9249650010029e-10
2.3399469255157e-09
5.7221687091704e-11
3.4152903847415e-10
8.4689778602553e-12
4.9569101274803e-11
1.481966801269e-12
7.0513216087735e-12
3.0998097721133e-13
1.0475962743153e-12
5.8307450801313e-14
1.7373977703736e-13
9.2937043315852e-15
2.9114583681694e-14
1.4448697849205e-15
4.6755070074968e-15
2.2544184809202e-16
7.3819760087929e-16
3.5094838620569e-17
1.1574801812572e-16
5.4326251587519e-18
1.8038554036168e-17
8.3640012160466e-19
2.7946656635023e-18
1.2816327349751e-19
4.3067181064131e-19
1.9556155684676e-20
6.6054399705877e-20
2.9726676201231e-21
1.0087998615254e-20
4.5029655570048e-22
1.534728386776e-21
6.7993466821307e-23
2.3266485862763e-22
1.0236758466915e-23
3.5158607416192e-23
1.537025678088e-24
5.2971963420247e-24
2.3020162465563e-25
7.959246206278e-25
3.4396936030573e-26
1.1928765870252e-25
5.1284076879027e-27
1.7835825043656e-26
7.6305703468138e-28
2.660927651936e-27
1.133175940194e-28
3.9616493540136e-28
1.6797805491559e-29
5.8867677288087e-29
2.4858047889393e-30
8.7314255876327e-30
3.6726638510359e-31
1.292842664507e-30
5.4179118812239e-32
1.9111698654961e-31
7.9809226340825e-33
2.8208713561122e-32
1.1740206414345e-33
4.1574956263537e-33
1.7247591100079e-34
6.1189403679848e-34
2.5306825707937e-35
8.9938458324096e-35
3.7087527451205e-36
1.3202803042309e-35
5.4290241458326e-37
1.9358114173157e-36
7.9385368671141e-38
2.8350392364884e-37
1.1595877918985e-38
4.1473963967111e-38
1.6921141130983e-39
6.0608331781365e-39
2.4668099230519e-40
8.8480582828184e-40
3.5928397669347e-41
1.2904459727367e-40
5.2281885476398e-42
1.8802869829453e-41
7.6013383382072e-43
2.7372607272445e-42
1.1042506964373e-43
3.9813489565088e-43
1.6028640793416e-44
5.7860191712278e-44
2.3248182209646e-45
8.4019048756598e-45
3.3694253315006e-46
1.2190904478092e-45
4.8798653845962e-47
1.7675256391023e-46
7.062445269474e-48
2.5608130963877e-47
1.0214265848043e-48
3.7075121588227e-48
1.4762948507714e-49
5.364008771667e-49
2.1323651078275e-50
7.7554630512352e-50
3.078086036375e-51
1.1205882297779e-50
4.440567601392e-52
1.6181274977247e-51
6.4023913207001e-53
2.3351547805243e-52
9.2256941825463e-54
3.3679247814282e-53
1.3286659187551e-54
4.8546737839077e-54
1.9124889245368e-55
6.9938374579482e-55
2.7514058975786e-56
1.0070137113729e-55
3.956297518183e-57
1.4491917980373e-56
5.6860079343263e-58
2.0844572131286e-57
8.167998982725e-59
2.9966945904269e-58
1.1727861274287e-59
4.3060579848569e-59
1.6831465178451e-60
6.1845832466856e-60
2.4145144660238e-61
8.8784929723023e-61
3.4621598794817e-62
1.2740051836662e-61
4.9622459140236e-63
1.8273045013413e-62
7.109312376718e-64
2.6197686286533e-63
1.0181205620402e-64
3.7543224814353e-64
1.4574615357361e-65
5.3780026463005e-65
2.0855716539767e-66
7.7007898261809e-66
2.9832314730514e-67
1.1022452259996e-66
4.265659502843e-68
1.5770796122588e-67
6.0971414043975e-69
2.2556153958578e-68
8.7118529158536e-70
3.224898190281e-69
1.2443487318596e-70
4.6090335116709e-70
1.7767913727266e-71
6.5849066709001e-71
2.5308420198399e-72
9.4051752999054e-72
3.9162225307671e-73
1.3362001045723e-72
2.2948084650314e-73
0
0
0
0
0
0
0
0
0
0
3.5286371384405e-05
1.0167640028661e-05
0.00061662867332777
0.00019498369369244
0.0035420413992603
0.0016215632039215
0.0048575178706767
0.002396635781829
0.0049732692606303
0.0024855050869476
0.0049899297245607
0.0024971012088697
0.0049940726516079
0.0024991110653498
0.0049929715749141
0.0024994460812229
0.0049847324753951
0.0024991000265103
0.0048950120288179
0.0024938532230577
0.0031014077681836
0.002423122019046
0.00037875383935001
0.0014155902862924
2.6583829273521e-05
0.00018075707143517
3.7939515348757e-06
2.0989440258462e-05
5.9974104951328e-07
3.1557493590332e-06
9.1659713508358e-08
4.8197094126294e-07
1.3981200902303e-08
7.3099178357953e-08
2.130026027669e-09
1.1059094270955e-08
3.2459377412068e-10
1.670109031904e-09
4.9813546731944e-11
2.5161793065754e-10
7.9320483527385e-12
3.765463698389e-11
1.465726332179e-12
5.5452455821307e-12
3.0492352546831e-13
8.7546648388858e-13
5.575595906507e-14
1.5185975003529e-13
8.939263366614e-15
2.5546147491697e-14
1.4098371910335e-15
4.1381963410936e-15
2.2243863705667e-16
6.6130743144629e-16
3.4939879136408e-17
1.049060886784e-16
5.4553319666539e-18
1.6529354359e-17
8.4713490394141e-19
2.5882117511326e-18
1.3091586521503e-19
4.030143241872e-19
2.0144010739322e-20
6.2441161237268e-20
3.0873246534152e-21
9.6308003468587e-21
4.7146216139555e-22
1.4793588148949e-21
7.1757302914309e-23
2.2639031093157e-22
1.0888066546035e-23
3.4526149086605e-23
1.6473968836021e-24
5.248803459669e-24
2.4859637705137e-25
7.956024804806e-25
3.7421159923506e-26
1.2026674800063e-25
5.6199742934563e-27
1.8133791546311e-26
8.4218566699694e-28
2.7277010309356e-27
1.259486716034e-28
4.0938714909458e-28
1.8799319953313e-29
6.131388403319e-29
2.8009122272413e-30
9.1648015024914e-30
4.1658887696559e-31
1.3673338534029e-30
6.185931542614e-32
2.0363705439976e-31
9.171220585115e-33
3.0276771255532e-32
1.3577077225465e-33
4.4943753034809e-33
2.0071165525523e-34
6.6614647971296e-34
2.963151475272e-35
9.8592022607523e-35
4.3689377926358e-36
1.4571831549102e-35
6.4337265035036e-37
2.1508664158188e-36
9.4631646026712e-38
3.1707674280457e-37
1.3903306904393e-38
4.6686360004576e-38
2.0404560237997e-39
6.8661264834548e-39
2.9914520632088e-40
1.0086716708275e-39
4.3812665162558e-41
1.4802084902045e-40
6.4105636633538e-42
2.1699445646229e-41
9.3710194500112e-43
3.1779249585923e-42
1.3686292649002e-43
4.6496844114682e-43
1.9971314315756e-44
6.7967742499068e-44
2.9118034223855e-45
9.9264875442615e-45
4.2419357933755e-46
1.44848779316e-45
6.1748182509765e-47
2.1118980194549e-46
8.9815883067313e-48
3.0766751256012e-47
1.3054530710596e-48
4.4787008158598e-48
1.8960872028516e-49
6.5147046581332e-49
2.7520325403587e-50
9.4693399632883e-50
3.9916815359573e-51
1.3754237521313e-50
5.7859370070321e-52
1.9964307284543e-51
8.3813708401782e-53
2.895886516752e-52
1.2133542971268e-53
4.1978474426547e-53
1.7554916462045e-54
6.0813144641053e-54
2.5383732280172e-55
8.8044350567532e-55
3.6682969405513e-56
1.2739311193206e-55
5.2982471687417e-57
1.8422039267313e-56
7.6482986408164e-58
2.6624616401038e-57
1.1034896514769e-58
3.8458224661968e-58
1.5912857437713e-59
5.5521524375966e-59
2.293559480329e-60
8.011348456718e-60
3.3041443596228e-61
1.1553871470632e-60
4.7577350972168e-62
1.6654534550285e-61
6.8476031754074e-63
2.3995273053118e-62
9.8509620253047e-64
3.4555093824874e-63
1.4165272354153e-64
4.9738926900516e-64
2.036018731322e-65
7.1562136844146e-65
2.9251850186991e-66
1.0291464386155e-65
4.2009128361805e-67
1.4793887451677e-66
6.0305461683872e-68
2.1257041810049e-67
8.653584305891e-69
3.0531117572507e-68
1.2412671893766e-69
4.3833463881026e-69
1.7798279303924e-70
6.2906480294176e-70
2.5458964656391e-71
9.0248281304491e-71
3.9557654620107e-72
1.2880624829129e-71
2.2213145612236e-72
0
0
0
0
0
0
0
0
0
4.4723731324185e-30
0.00012450522804575
2.5700334966964e-05
0.0019707540615125
0.0005204356991743
0.0046193230370764
0.0020608803551505
0.0049706182908323
0.0024425770803046
0.0049936019058292
0.0024912055089551
0.0049976945001791
0.0024985420065846
0.0049990287769681
0.0024996421733487
0.0049991325278139
0.0024998271536147
0.0049986459148316
0.0024997705886815
0.0049915210560197
0.0024996187028483
0.0046175943814638
0.0024733212024008
0.0014019490021229
0.0019939449926888
9.0574065999905e-05
0.00047154133494416
8.4641221473736e-06
5.0484905190388e-05
1.3165776144626e-06
7.3163172324645e-06
2.0840506833985e-07
1.1371835896132e-06
3.2139561727133e-08
1.7544851028332e-07
4.9472904197489e-09
2.6930251441517e-08
7.617274561888e-10
4.123308584767e-09
1.1817740893851e-10
6.2991866581406e-10
1.9223020153755e-11
9.5820350476755e-11
3.6198612348207e-12
1.4485874571275e-11
8.5828168429868e-13
2.3062309066695e-12
1.7980602841343e-13
4.1617641062532e-13
3.0508709413867e-14
7.4207301208226e-14
4.9217546003414e-15
1.2507096834034e-14
7.9348178975075e-16
2.059235663217e-15
1.2740275795782e-16
3.3552299718157e-16
2.0310704591147e-17
5.4199601483556e-17
3.2161427962437e-18
8.6865039172314e-18
5.0625340989821e-19
1.3824336536714e-18
7.9267492216451e-20
2.1863998175003e-19
1.2351923212602e-20
3.438581610217e-20
1.9163373241909e-21
5.3805554153739e-21
2.9611985158702e-22
8.3805340165074e-22
4.5589052134806e-23
1.2998225283763e-22
6.9947624925901e-24
2.0082255243505e-23
1.0698235103885e-24
3.0916227143312e-24
1.6314479442904e-25
4.7437307404715e-25
2.4810814196211e-26
7.2562790528525e-26
3.7634960007693e-27
1.1067718641666e-26
5.6949886410145e-28
1.6835761038933e-27
8.5981881057562e-29
2.5545246827432e-28
1.2953575835397e-29
3.8668323344519e-29
1.9475651817161e-30
5.840197606608e-30
2.9225400078448e-31
8.8019812804853e-31
4.3776163306057e-32
1.3239240877758e-31
6.5458020512044e-33
1.9875606139344e-32
9.7717438671073e-34
2.9784723953976e-33
1.4564603232209e-34
4.4557483786547e-34
2.1675717897057e-35
6.6548256987629e-35
3.2212558696396e-36
9.9237112140522e-36
4.7805790500452e-37
1.4776210278656e-36
7.0853966357542e-38
2.1970073512953e-37
1.0488162283841e-38
3.2621620552255e-38
1.5506289518376e-39
4.8373717266856e-39
2.2898654204788e-40
7.1641728085537e-40
3.3777280687633e-41
1.0597333834841e-40
4.9770269068931e-42
1.5657453923372e-41
7.3259298046319e-43
2.31077903522e-42
1.0772559101208e-43
3.4066390631758e-43
1.5825352897462e-44
5.0169631433013e-44
2.3226325103018e-45
7.3810560429113e-45
3.4057566166654e-46
1.0848601347514e-45
4.9895968164561e-47
1.5930180726054e-46
7.3037870968675e-48
2.3370750876354e-47
1.0682502986881e-48
3.4256442236334e-48
1.561173245375e-49
5.0169693754787e-49
2.27977874245e-50
7.3414462833145e-50
3.3266544526614e-51
1.073429696136e-50
4.8507119343404e-52
1.5682947724954e-51
7.0679757666049e-53
2.2895688698005e-52
1.0291648969882e-53
3.3401119308772e-53
1.497557177832e-54
4.8692106360099e-54
2.1777008942638e-55
7.0934069464968e-55
3.1647317996053e-56
1.0326618390572e-55
4.5962817002519e-57
1.5023673378612e-56
6.6713587320252e-58
2.1843205553892e-57
9.6775735496772e-59
3.1738472156436e-58
1.4030383240187e-59
4.6088432800956e-59
2.032963308627e-60
6.688684969874e-60
2.9440986189062e-61
9.7014970539424e-61
4.2613146170373e-62
1.406345646011e-61
6.164653783253e-63
2.0375418861498e-62
8.9135937710288e-64
2.9504469039801e-63
1.2881933690117e-64
4.2701316656983e-64
1.8607935565388e-65
6.1769225006754e-65
2.6866364652769e-66
8.9306997869026e-66
3.8771954481501e-67
1.2905835583691e-66
5.5927950641153e-68
1.864140925786e-67
8.0639276831894e-69
2.6913355240822e-68
1.1622101535151e-69
3.8838061463212e-69
1.6709912702209e-70
5.6024091279106e-70
2.60950486856e-71
8.0404105718858e-71
1.394023811206e-71
0
0
0
0
0
0
0
0
4.1655515580521e-30
3.0682157436635e-31
0.00019810950332597
2.8991496604752e-05
0.0030051932805911
0.0005667147858758
0.0048260314798303
0.0019819598021818
0.0049862381412563
0.0024345241735214
0.004997397640331
0.002490759855633
0.0049992204854214
0.002498587443895
0.0049996402741185
0.0024997344292217
0.0049997752696922
0.0024998974788601
0.0049997545249735
0.0024999363775332
0.0049980049233486
0.0024996358562093
0.0047910633388533
0.0024683157821876
0.002004007991017
0.0019193610700785
0.00017082701046879
0.00050588033011938
1.1805298474322e-05
6.3746280131251e-05
1.8231434503451e-06
9.5439990078835e-06
3.0981188534758e-07
1.5595866501216e-06
4.8904063875587e-08
2.5210653097452e-07
7.5287988690374e-09
4.0088575991162e-08
1.1584350591423e-09
6.315259304222e-09
1.8023906525374e-10
9.8850983546871e-10
2.9887539372526e-11
1.5384167865471e-10
6.1675976245573e-12
2.394851472841e-11
1.5955246059742e-12
3.9558869790323e-12
3.6422089575248e-13
7.3411474149946e-13
6.5996219476962e-14
1.3676776646028e-13
1.0980144887167e-14
2.396312934056e-14
1.8142797859423e-15
4.071054735094e-15
2.9833013668431e-16
6.8221798065198e-16
4.8659099921476e-17
1.1314364635254e-16
7.8738279731987e-18
1.8590401870058e-17
1.2652197133266e-18
3.029328169422e-18
2.02036835349e-19
4.9000097694406e-19
3.208041698193e-20
7.8735568467938e-20
5.0677372147678e-21
1.257606471298e-20
7.9678737575512e-22
1.9978114317923e-21
1.2473550338106e-22
3.157931148247e-22
1.9449176780634e-23
4.9689432588664e-23
3.0213607923896e-24
7.7856014266915e-24
4.6774218914785e-25
1.2151275952529e-24
7.2179391024015e-26
1.8896098124904e-25
1.1104835865543e-26
2.9285251569348e-26
1.7036635692272e-27
4.5242584055056e-27
2.6067600049079e-28
6.9687165575732e-28
3.9785953657923e-29
1.0703901810334e-28
6.0580109060643e-30
1.6397782273353e-29
9.2035778600077e-31
2.5057938153356e-30
1.3952752531343e-31
3.8201532994729e-31
2.1109880957417e-32
5.8109159161646e-32
3.1876957888318e-33
8.8203436832977e-33
4.8047677019795e-34
1.3361292571824e-33
7.2295073362704e-35
2.0201098174937e-34
1.085974200003e-35
3.0486209710273e-35
1.6286814940935e-36
4.5927147871193e-36
2.4388656460278e-37
6.9072671142598e-37
3.6467158143137e-38
1.0371573107385e-37
5.4450741180725e-39
1.5549393002139e-38
8.1192776091388e-40
2.3277676250234e-39
1.2091080694659e-40
3.4797530915192e-40
1.7983244348108e-41
5.1947367500591e-41
2.6714434818941e-42
7.744746819159e-42
3.9638538793681e-43
1.1531888019574e-42
5.8749018134229e-44
1.7149949884399e-43
8.6978432383793e-45
2.547493970098e-44
1.2863711311766e-45
3.7798010384569e-45
1.9005515978744e-46
5.6020479912264e-46
2.8052131558825e-47
8.2939723204995e-47
4.1365504456223e-48
1.2266796299083e-47
6.0941031732855e-49
1.8124528733823e-48
8.9699999348513e-50
2.6753632957281e-49
1.3191609739646e-50
3.9454095521755e-50
1.9383708954575e-51
5.8130880578514e-51
2.8459037020857e-52
8.5573405505298e-52
4.1750125204077e-53
1.2586324217425e-52
6.1201096584492e-54
1.8496850021719e-53
8.9646558821496e-55
2.7160983942329e-54
1.312169091344e-55
3.9852148703021e-55
1.9192702646307e-56
5.8428635365795e-56
2.8053086887146e-57
8.5600508760031e-57
4.0976143185418e-58