# vtk DataFile Version 2.0
track0
ASCII
DATASET POLYDATA
POINTS 10932 float
-0.0205 0.001 1e-05
-0.02052 0.00100026 1e-05
-0.02054 0.00100046 1e-05
-0.02056 0.00100062 1e-05
-0.02058 0.00100072 1e-05
-0.0206 0.00100077 1e-05
-0.0205 0.00367778 1e-05
-0.02052 0.0036779 1e-05
-0.02054 0.00367799 1e-05
-0.02056 0.00367806 1e-05
-0.02058 0.00367811 1e-05
-0.0206 0.00367814 1e-05
-0.0205 0.00635556 1e-05
-0.02052 0.00635559 1e-05
-0.02054 0.00635561 1e-05
-0.02056 0.00635563 1e-05
-0.02058 0.00635565 1e-05
-0.0206 0.00635565 1e-05
-0.0205 0.00903333 1e-05
-0.02052 0.00903335 1e-05
-0.02054 0.00903336 1e-05
-0.02056 0.00903337 1e-05
-0.02058 0.00903337 1e-05
-0.0206 0.00903337 1e-05
-0.0205 0.0117111 1e-05
-0.02052 0.0117111 1e-05
-0.02054 0.0117111 1e-05
-0.02056 0.0117111 1e-05
-0.02058 0.0117111 1e-05
-0.0206 0.0117111 1e-05
-0.0205 0.0143889 1e-05
-0.02052 0.0143889 1e-05
-0.02054 0.0143889 1e-05
-0.02056 0.0143889 1e-05
-0.02058 0.0143889 1e-05
-0.0206 0.0143889 1e-05
-0.0205 0.0170667 1e-05
-0.02052 0.0170666 1e-05
-0.02054 0.0170666 1e-05
-0.02056 0.0170666 1e-05
-0.02058 0.0170666 1e-05
-0.0206 0.0170666 1e-05
-0.0205 0.0197444 1e-05
-0.02052 0.0197444 1e-05
-0.02054 0.0197443 1e-05
-0.02056 0.0197443 1e-05
-0.02058 0.0197443 1e-05
-0.0206 0.0197443 1e-05
-0.0205 0.0224222 1e-05
-0.02052 0.0224221 1e-05
-0.02054 0.022422 1e-05
-0.02056 0.0224219 1e-05
-0.02058 0.0224218 1e-05
-0.0206 0.0224218 1e-05
-0.0205 0.0251 1e-05
-0.02052 0.0250982 1e-05
-0.02054 0.0250967 1e-05
-0.0205601 0.0250956 1e-05
-0.0205802 0.0250949 1e-05
-0.0206 0.0250945 1e-05
-0.0205 0.001 1e-05
-0.0202034 0.000996197 1e-05
-0.0199071 0.000984889 1e-05
-0.0196111 0.000966198 1e-05
-0.0193156 0.000939961 1e-05
-0.0190172 0.000906929 1e-05
-0.0187132 0.000873111 1e-05
-0.0184093 0.000839439 1e-05
-0.0181054 0.000805912 1e-05
-0.0178013 0.000773764 1e-05
-0.0174976 0.000743949 1e-05
-0.0173143 0.000727272 1e-05
-0.017131 0.000711434 1e-05
-0.0169476 0.000696303 1e-05
-0.0167642 0.000681806 1e-05
-0.0164834 0.000660565 1e-05
-0.0163945 0.000654278 1e-05
-0.0163055 0.000648132 1e-05
-0.0162165 0.000642125 1e-05
-0.0161276 0.000636254 1e-05
-0.0160387 0.000630514 1e-05
-0.0157586 0.000612637 1e-05
-0.0154784 0.000596001 1e-05
-0.0151981 0.000580406 1e-05
-0.0149178 0.000565802 1e-05
-0.0146381 0.000552003 1e-05
-0.0143692 0.000539117 1e-05
-0.0141002 0.000527153 1e-05
-0.0138312 0.000516047 1e-05
-0.0135621 0.000505561 1e-05
-0.0132934 0.000495358 1e-05
-0.0130353 0.00048581 1e-05
-0.0127771 0.000476966 1e-05
-0.0125188 0.000468784 1e-05
-0.0122606 0.000460975 1e-05
-0.0120025 0.000453337 1e-05
-0.0117547 0.000446158 1e-05
-0.0115068 0.000439511 1e-05
-0.0112589 0.000433312 1e-05
-0.011011 0.000427342 1e-05
-0.0107632 0.000421516 1e-05
-0.0105252 0.000416011 1e-05
-0.0102873 0.000410913 1e-05
-0.0100493 0.000406071 1e-05
-0.00981129 0.000401397 1e-05
-0.00957337 0.000396862 1e-05
-0.00934491 0.000392553 1e-05
-0.00911645 0.000388562 1e-05
-0.00888798 0.00038471 1e-05
-0.00865951 0.00038098 1e-05
-0.00843108 0.000377373 1e-05
-0.00821175 0.000373934 1e-05
-0.00799242 0.00037072 1e-05
-0.00777308 0.000367598 1e-05
-0.00755375 0.000364568 1e-05
-0.00733443 0.000361628 1e-05
-0.00712387 0.000358833 1e-05
-0.0069133 0.000356189 1e-05
-0.00670273 0.000353614 1e-05
-0.00649216 0.000351107 1e-05
-0.0062816 0.000348667 1e-05
-0.00607944 0.000346351 1e-05
-0.00587729 0.000344135 1e-05
-0.00567513 0.000341968 1e-05
-0.00547298 0.000339851 1e-05
-0.00527083 0.000337783 1e-05
-0.00507675 0.000335822 1e-05
-0.00488267 0.000333922 1e-05
-0.0046886 0.000332055 1e-05
-0.00449452 0.00033022 1e-05
-0.00430044 0.000328418 1e-05
-0.00411412 0.000326707 1e-05
-0.0039278 0.000325024 1e-05
-0.00374147 0.000323354 1e-05
-0.00355515 0.000321698 1e-05
-0.00336883 0.000320056 1e-05
-0.00334103 0.000319813 1e-05
-0.00331323 0.00031957 1e-05
-0.00328543 0.000319326 1e-05
-0.00325763 0.000319082 1e-05
-0.00323017 0.000318841 1e-05
-0.00307903 0.000317509 1e-05
-0.00292788 0.000316167 1e-05
-0.00277673 0.000314814 1e-05
-0.00262558 0.00031345 1e-05
-0.00247443 0.000312075 1e-05
-0.0023027 0.000310482 1e-05
-0.00213097 0.00030884 1e-05
-0.00195924 0.000307125 1e-05
-0.00178751 0.000305336 1e-05
-0.00161577 0.000303476 1e-05
-0.0014509 0.000301573 1e-05
-0.00128603 0.000299486 1e-05
-0.00112117 0.000297103 1e-05
-0.000956308 0.000294431 1e-05
-0.000791418 0.000291471 1e-05
-0.000633135 0.00028821 1e-05
-0.000474865 0.000284331 1e-05
-0.000316619 0.000279588 1e-05
-0.0001584 0.000273991 1e-05
0 0.000267541 1e-05
0.000105677 0.000262503 1e-05
0.000211295 0.000256336 1e-05
0.000316883 0.00024968 1e-05
0.000422438 0.000242529 1e-05
0.000528387 0.000235095 1e-05
0.000634886 0.000228475 1e-05
0.000741335 0.000221092 1e-05
0.000847758 0.000213336 1e-05
0.000954179 0.000205568 1e-05
0.00106088 0.000198354 1e-05
0.00116821 0.000191939 1e-05
0.00127552 0.000185185 1e-05
0.0013828 0.000178102 1e-05
0.0014901 0.000171161 1e-05
0.00159752 0.000164769 1e-05
0.00170568 0.000158908 1e-05
0.00181383 0.000152885 1e-05
0.00192198 0.000146703 1e-05
0.00203013 0.000140628 1e-05
0.00213833 0.000134946 1e-05
0.00224733 0.000129624 1e-05
0.00235633 0.000124223 1e-05
0.00246532 0.000118763 1e-05
0.00257432 0.000113421 1e-05
0.00268334 0.000108331 1e-05
0.00279319 0.000103496 1e-05
0.00290304 9.86165e-05 1e-05
0.00301288 9.3759e-05 1e-05
0.00312274 8.89977e-05 1e-05
0.00323259 8.43779e-05 1e-05
0.00334329 7.99427e-05 1e-05
0.00345399 7.54773e-05 1e-05
0.0035647 7.1068e-05 1e-05
0.00367541 6.67346e-05 1e-05
0.00378611 6.24768e-05 1e-05
0.00389767 5.83569e-05 1e-05
0.00400924 5.42235e-05 1e-05
0.0041208 5.01502e-05 1e-05
0.00423237 4.61365e-05 1e-05
0.00434393 4.21822e-05 1e-05
0.00445636 3.83074e-05 1e-05
0.00456879 3.44399e-05 1e-05
0.00468123 3.06195e-05 1e-05
0.00479366 2.68457e-05 1e-05
0.00490609 2.31183e-05 1e-05
0.0050194 1.9431e-05 1e-05
0.0051327 1.57623e-05 1e-05
0.00524601 1.21296e-05 1e-05
0.00535932 8.53266e-06 1e-05
0.00547262 4.9715e-06 1e-05
0.00550461 3.9772e-06 1e-05
0.0055366 2.98412e-06 1e-05
0.00556858 1.99313e-06 1e-05
0.00560057 1.00425e-06 1e-05
0.00563312 0 1e-05
0.00571521 -2.52689e-06 1e-05
0.0057973 -5.04034e-06 1e-05
0.00587938 -7.54041e-06 1e-05
0.00596147 -1.00272e-05 1e-05
0.00604356 -1.25006e-05 1e-05
0.00615863 -1.59387e-05 1e-05
0.00627371 -1.93718e-05 1e-05
0.00638878 -2.27871e-05 1e-05
0.00650386 -2.61847e-05 1e-05
0.00661893 -2.95646e-05 1e-05
0.0067349 -3.29312e-05 1e-05
0.00685087 -3.63132e-05 1e-05
0.00696684 -3.96845e-05 1e-05
0.00708281 -4.30452e-05 1e-05
0.00719878 -4.63954e-05 1e-05
0.00731565 -4.97311e-05 1e-05
0.00743252 -5.30979e-05 1e-05
0.00754939 -5.64603e-05 1e-05
0.00766626 -5.98183e-05 1e-05
0.00778313 -6.31721e-05 1e-05
0.00790091 -6.65121e-05 1e-05
0.00801869 -6.98956e-05 1e-05
0.00813647 -7.32805e-05 1e-05
0.00825425 -7.66667e-05 1e-05
0.00837203 -8.00544e-05 1e-05
0.00849073 -8.34304e-05 1e-05
0.00860942 -8.68563e-05 1e-05
0.00872812 -9.02927e-05 1e-05
0.00884681 -9.37357e-05 1e-05
0.00896551 -9.71783e-05 1e-05
0.00908513 -0.000100619 1e-05
0.00920475 -0.000104111 1e-05
0.00932436 -0.000107626 1e-05
0.00944398 -0.000111152 1e-05
0.0095636 -0.000114678 1e-05
0.00968415 -0.000118211 1e-05
0.0098047 -0.000121795 1e-05
0.00992524 -0.000125415 1e-05
0.0100458 -0.000129051 1e-05
0.0101663 -0.000132686 1e-05
0.0102878 -0.000136337 1e-05
0.0104093 -0.000140041 1e-05
0.0105308 -0.000143789 1e-05
0.0106523 -0.000147559 1e-05
0.0107738 -0.000151328 1e-05
0.0108962 -0.000155122 1e-05
0.0110186 -0.00015897 1e-05
0.0111411 -0.00016287 1e-05
0.0112635 -0.000166795 1e-05
0.0113859 -0.000170723 1e-05
0.0115093 -0.000174683 1e-05
0.0116327 -0.000178698 1e-05
0.0117561 -0.000182769 1e-05
0.0118794 -0.000186869 1e-05
0.0120028 -0.000190979 1e-05
0.0121272 -0.000195128 1e-05
0.0122515 -0.000199335 1e-05
0.0123759 -0.000203598 1e-05
0.0125002 -0.000207898 1e-05
0.0126245 -0.000212212 1e-05
0.0127498 -0.000216574 1e-05
0.0128752 -0.000220996 1e-05
0.0130005 -0.000225476 1e-05
0.0131258 -0.000229998 1e-05
0.0132511 -0.00023454 1e-05
0.0133774 -0.000239137 1e-05
0.0135036 -0.000243796 1e-05
0.0136299 -0.000248515 1e-05
0.0137562 -0.00025328 1e-05
0.0138825 -0.000258073 1e-05
0.0140098 -0.000262928 1e-05
0.014137 -0.000267847 1e-05
0.0142643 -0.000272825 1e-05
0.0143915 -0.000277852 1e-05
0.0145188 -0.000282918 1e-05
0.0146471 -0.000288054 1e-05
0.0147753 -0.000293256 1e-05
0.0149036 -0.000298516 1e-05
0.0150318 -0.000303829 1e-05
0.0151601 -0.000309191 1e-05
0.0152893 -0.000314631 1e-05
0.0154186 -0.000320139 1e-05
0.0155478 -0.000325705 1e-05
0.0156771 -0.000331327 1e-05
0.0158063 -0.000337007 1e-05
0.0159366 -0.000342773 1e-05
0.0160668 -0.000348608 1e-05
0.0161971 -0.000354503 1e-05
0.0163273 -0.000360458 1e-05
0.0164576 -0.000366474 1e-05
0.0165889 -0.000372589 1e-05
0.0167201 -0.000378773 1e-05
0.0168514 -0.000385021 1e-05
0.0169827 -0.000391332 1e-05
0.0171139 -0.000397709 1e-05
0.0171603 -0.000399981 1e-05
0.0172066 -0.000402263 1e-05
0.017253 -0.000404552 1e-05
0.0172993 -0.00040685 1e-05
0.0173438 -0.000409067 1e-05
0.0174302 -0.000413377 1e-05
0.0175165 -0.000417716 1e-05
0.0176028 -0.000422084 1e-05
0.0176891 -0.00042648 1e-05
0.0177754 -0.000430906 1e-05
0.0179087 -0.000437783 1e-05
0.018042 -0.000444736 1e-05
0.0181753 -0.000451761 1e-05
0.0183086 -0.000458856 1e-05
0.018442 -0.000466025 1e-05
0.0185763 -0.000473313 1e-05
0.0187107 -0.000480687 1e-05
0.018845 -0.000488135 1e-05
0.0189794 -0.000495658 1e-05
0.0191137 -0.000503259 1e-05
0.0192491 -0.000510982 1e-05
0.0193845 -0.000518799 1e-05
0.0195199 -0.000526695 1e-05
0.0196553 -0.000534669 1e-05
0.0197907 -0.000542722 1e-05
0.0199272 -0.000550905 1e-05
0.0200636 -0.000559183 1e-05
0.0202001 -0.000567551 1e-05
0.0203365 -0.000576 1e-05
0.020473 -0.000584529 1e-05
0.0206105 -0.000593196 1e-05
0.020748 -0.000601961 1e-05
0.0208855 -0.000610823 1e-05
0.021023 -0.000619771 1e-05
0.0211606 -0.000628801 1e-05
0.0212991 -0.000637976 1e-05
0.0214377 -0.000647252 1e-05
0.0215763 -0.000656628 1e-05
[...]
POINT_DATA 10932
 FIELD attributes 1
U 3 10932 float
0.308535 	-0.00395649 	0 0.307637 	-0.00316519 	0 0.306723 	-0.00237387 	0 0.305795 	-0.00158253 	0 0.304851 	-0.000791178 	0 0.303893 	0 	0
0.989492 	-0.00589618 	0 0.989719 	-0.00471695 	0 0.98994 	-0.0035377 	0 0.990156 	-0.00235845 	0 0.990367 	-0.0011792 	0 0.990573 	0 	0
1.50209 	-0.00244265 	0 1.50222 	-0.00195401 	0 1.50236 	-0.00146536 	0 1.5025 	-0.000976716 	0 1.50263 	-0.000488073 	0 1.50276 	0 	0
1.8259 	-0.00125479 	0 1.8258 	-0.00100383 	0 1.82571 	-0.000752872 	0 1.82561 	-0.000501915 	0 1.82551 	-0.000250957 	0 1.82542 	0 	0
1.97015 	-0.000167384 	0 1.9697 	-0.000133907 	0 1.96924 	-0.00010043 	0 1.96878 	-6.69536e-05 	0 1.96833 	-3.34768e-05 	0 1.96787 	0 	0
1.94115 	0.000382647 	0 1.94051 	0.000306118 	0 1.93988 	0.000229588 	0 1.93925 	0.000153059 	0 1.93862 	7.65295e-05 	0 1.93799 	0 	0
1.75628 	0.0018027 	0 1.75611 	0.00144216 	0 1.75594 	0.00108162 	0 1.75578 	0.000721081 	0 1.75561 	0.00036054 	0 1.75544 	0 	0
1.38193 	0.00385656 	0 1.382 	0.00308525 	0 1.38207 	0.00231393 	0 1.38214 	0.00154262 	0 1.38221 	0.000771306 	0 1.38227 	0 	0
0.827864 	0.00618143 	0 0.828062 	0.00494514 	0 0.828253 	0.00370884 	0 0.828437 	0.00247254 	0 0.828615 	0.00123622 	0 0.828785 	0 	0
0.109266 	0.00998302 	0 0.10925 	0.00798642 	0 0.109154 	0.00598683 	0 0.108977 	0.00398492 	0 0.108721 	0.00198134 	0 0.108387 	0 	0
0.308535 	-0.00395649 	0 0.317428 	-0.0121108 	0 0.324387 	-0.0204842 	0 0.329697 	-0.0292801 	0 0.332971 	-0.0368512 	0 0.333193 	-0.037075 	0 0.333067 	-0.0368993 	0 0.332976 	-0.0367288 	0 0.336383 	-0.0355603 	0 0.342683 	-0.0336438 	0 0.349514 	-0.0318067 	0 0.35435 	-0.0306126 	0 0.358709 	-0.0295972 	0 0.362904 	-0.02868 	0 0.367252 	-0.0277848 	0 0.374133 	-0.0264475 	0 0.376489 	-0.0260127 	0 0.378878 	-0.0255833 	0 0.381299 	-0.0251593 	0 0.383473 	-0.0247603 	0 0.383832 	-0.0244961 	0 0.392546 	-0.0233069 	0 0.399206 	-0.0222141 	0 0.406106 	-0.0211577 	0 0.410851 	-0.0202678 	0 0.410763 	-0.0196829 	0 0.421716 	-0.0187578 	0 0.432675 	-0.017864 	0 0.438373 	-0.017085 	0 0.437247 	-0.016604 	0 0.43621 	-0.016131 	0 0.447651 	-0.0153326 	0 0.459324 	-0.0145535 	0 0.463975 	-0.0140306 	0 0.461847 	-0.0136712 	0 0.459777 	-0.0133161 	0 0.47148 	-0.0126414 	0 0.481502 	-0.0120414 	0 0.484871 	-0.0116766 	0 0.484079 	-0.0113822 	0 0.480978 	-0.0111274 	0 0.492849 	-0.0105578 	0 0.499339 	-0.0101583 	0 0.502381 	-0.00986753 	0 0.503885 	-0.0096039 	0 0.499817 	-0.00942664 	0 0.511826 	-0.00894107 	0 0.515196 	-0.00868772 	0 0.517932 	-0.00845485 	0 0.520728 	-0.00822411 	0 0.516515 	-0.00809663 	0 0.526834 	-0.00772085 	0 0.529248 	-0.00753267 	0 0.531708 	-0.00734596 	0 0.534215 	-0.00716071 	0 0.531317 	-0.00705232 	0 0.539533 	-0.00677483 	0 0.541718 	-0.0066254 	0 0.543939 	-0.00647699 	0 0.546195 	-0.00632958 	0 0.544504 	-0.00623721 	0 0.550862 	-0.00603896 	0 0.552857 	-0.00592451 	0 0.554879 	-0.00581075 	0 0.556927 	-0.00569767 	0 0.556364 	-0.00562127 	0 0.561075 	-0.00549355 	0 0.562924 	-0.00541622 	0 0.56479 	-0.00533931 	0 0.566675 	-0.00526283 	0 0.567192 	-0.00520668 	0 0.570446 	-0.00515496 	0 0.57221 	-0.00512764 	0 0.573983 	-0.0051005 	0 0.575763 	-0.00507353 	0 0.57737 	-0.00504971 	0 0.57784 	-0.00505728 	0 0.578115 	-0.00506801 	0 0.578389 	-0.00507874 	0 0.578664 	-0.00508947 	0 0.578935 	-0.00510005 	0 0.580371 	-0.00515441 	0 0.581801 	-0.00520861 	0 0.583225 	-0.00526265 	0 0.584642 	-0.00531651 	0 0.577675 	-0.00535804 	0 0.5879 	-0.00562128 	0 0.589819 	-0.00589221 	0 0.59169 	-0.00616179 	0 0.593517 	-0.00643002 	0 0.57579 	-0.0066439 	0 0.597529 	-0.00756711 	0 0.599693 	-0.00866536 	0 0.60167 	-0.00975367 	0 0.603464 	-0.0108322 	0 0.56892 	-0.0117226 	0 0.607595 	-0.0148888 	3.56225e-22 0.609399 	-0.0182672 	9.99984e-22 0.610668 	-0.0216027 	1.63434e-21 0.611408 	-0.0248956 	2.2594e-21 0.539852 	-0.0257347 	2.87608e-21 0.618509 	-0.0361179 	5.62189e-21 0.617348 	-0.0389114 	6.09929e-21 0.615955 	-0.04173 	6.59331e-21 0.609745 	-0.042787 	6.45402e-21 0.583996 	-0.0362978 	3.5712e-21 0.599589 	-0.0415848 	2.44373e-21 0.60528 	-0.0441121 	1.49884e-21 0.601322 	-0.0438923 	7.42705e-22 0.589036 	-0.0398269 	7.49225e-22 0.57387 	-0.0342987 	1.05299e-21 0.582809 	-0.0366851 	2.01068e-21 0.591529 	-0.0390527 	2.96636e-21 0.589582 	-0.0381379 	2.83736e-21 0.581978 	-0.0346303 	1.99242e-21 0.574649 	-0.0311384 	1.14408e-21 0.5808 	-0.0323466 	1.7794e-21 0.586868 	-0.0335488 	2.41537e-21 0.58891 	-0.0330761 	2.09425e-21 0.584829 	-0.0307136 	1.04017e-21 0.580916 	-0.0283611 	-1.26405e-23 0.585216 	-0.0289988 	-1.00958e-21 0.589309 	-0.0295215 	-1.90289e-21 0.591791 	-0.0290045 	-1.83921e-21 0.590522 	-0.02757 	-1.09571e-21 0.588334 	-0.0258956 	-1.69512e-22 0.591659 	-0.0262832 	-2.06998e-22 0.594448 	-0.0262863 	-2.5937e-22 0.596661 	-0.0258606 	-3.28142e-22 0.597642 	-0.0251346 	-4.90772e-22 0.596522 	-0.0238985 	-8.12647e-22 0.599369 	-0.024177 	-1.2392e-21 0.601575 	-0.0239601 	-1.42725e-21 0.603652 	-0.0236287 	-1.55951e-21 0.605749 	-0.0232984 	-1.69096e-21 0.605283 	-0.0223521 	-1.31058e-21 0.607751 	-0.0225168 	-1.60771e-21 0.609699 	-0.02226 	-1.4006e-21 0.611665 	-0.0220049 	-1.19371e-21 0.61365 	-0.0217515 	-9.87048e-22 0.614283 	-0.0211703 	-4.55768e-22 0.616408 	-0.0212032 	-4.73452e-24 0.618267 	-0.0210083 	1.85227e-22 0.620139 	-0.0208146 	3.75662e-22 0.622024 	-0.0206222 	5.66569e-22 0.623319 	-0.0202845 	5.40933e-22 0.625213 	-0.0202438 	6.26773e-22 0.626994 	-0.0201016 	5.76482e-22 0.628784 	-0.0199604 	5.26427e-22 0.630585 	-0.0198199 	4.76605e-22 0.632287 	-0.0196543 	3.98854e-22 0.632785 	-0.0196457 	3.84094e-22 0.633263 	-0.0196189 	3.84746e-22 0.633741 	-0.0195921 	3.85394e-22 0.63422 	-0.0195654 	3.86037e-22 0.634708 	-0.0195383 	3.86687e-22 0.635997 	-0.0194737 	3.77571e-22 0.637289 	-0.0194094 	3.68483e-22 0.638584 	-0.0193454 	3.59422e-22 0.639883 	-0.0192816 	3.50387e-22 0.641069 	-0.0191529 	3.92495e-22 0.643052 	-0.0191846 	3.35897e-22 0.644765 	-0.0191358 	3.29429e-22 0.646482 	-0.0190873 	3.22996e-22 0.648202 	-0.0190391 	3.16597e-22 0.649671 	-0.0188596 	3.8214e-22 0.651886 	-0.019011 	2.14949e-22 0.653525 	-0.0189985 	5.828e-23 0.655166 	-0.0189862 	-9.83909e-23 0.656809 	-0.0189741 	-2.55064e-22 0.658075 	-0.0187828 	-4.22055e-22 0.660461 	-0.0190264 	-7.75571e-22 0.66203 	-0.0190467 	-8.75438e-22 0.663599 	-0.019067 	-9.75281e-22 0.665169 	-0.0190874 	-1.0751e-21 0.666252 	-0.0188938 	-7.56085e-22 0.668766 	-0.0192122 	-1.10075e-21 0.670267 	-0.019263 	-1.09965e-21 0.671767 	-0.0193138 	-1.09855e-21 0.673267 	-0.0193645 	-1.09735e-21 0.674182 	-0.0191755 	-5.80492e-22 0.676697 	-0.0195316 	-4.33037e-22 0.678228 	-0.0196359 	-2.79295e-22 0.679662 	-0.0197154 	-1.24926e-22 0.680978 	-0.0197501 	-2.9136e-24 0.681851 	-0.0196146 	-3.91751e-24 0.684223 	-0.0199704 	-2.82618e-24 0.685909 	-0.0201563 	4.18663e-23 0.687277 	-0.0202632 	1.06837e-22 0.688419 	-0.0202889 	1.71424e-22 0.689251 	-0.0202018 	2.35499e-22 0.69149 	-0.0205607 	1.65717e-22 0.693305 	-0.0208177 	9.58073e-23 0.694607 	-0.0209509 	2.57655e-23 0.695584 	-0.0209725 	0 0.696373 	-0.0209295 	0 0.698487 	-0.0212938 	0 0.70041 	-0.0216139 	1.47687e-23 0.701648 	-0.0217722 	8.4403e-23 0.702465 	-0.0217934 	1.49736e-22 0.70321 	-0.0217907 	2.14324e-22 0.705206 	-0.022162 	7.30373e-22 0.707194 	-0.0225325 	1.24636e-21 0.70836 	-0.0227103 	1.31015e-21 0.709059 	-0.0227452 	8.4993e-22 0.709757 	-0.02278 	3.89654e-22 0.711642 	-0.0231601 	8.26702e-22 0.713519 	-0.0235394 	1.26364e-21 0.714709 	-0.0237539 	1.20939e-21 0.71536 	-0.0238243 	6.92166e-22 0.716011 	-0.0238946 	1.74877e-22 0.717789 	-0.0242849 	1.03444e-22 0.719558 	-0.0246743 	3.19558e-23 0.720762 	-0.0249239 	0 0.721365 	-0.0250279 	0 0.721966 	-0.0251317 	0 0.72364 	-0.0255332 	0 0.725305 	-0.0259339 	0 0.726514 	-0.0262173 	-1.37086e-22 0.727067 	-0.026353 	-3.61791e-22 0.727616 	-0.0264885 	-5.86548e-22 0.729189 	-0.0269019 	-9.3258e-22 0.73073 	-0.0273083 	-1.24914e-21 0.73188 	-0.0276133 	-1.07872e-21 0.73246 	-0.0277967 	-5.68074e-22 0.732956 	-0.0279625 	-8.82772e-24 0.73443 	-0.0283883 	5.50309e-22 0.735766 	-0.0287808 	9.67684e-22 0.736829 	-0.0291058 	1.09513e-21 0.737539 	-0.029357 	9.60934e-22 0.737979 	-0.0295519 	6.27274e-22 0.739356 	-0.0299907 	4.14045e-22 0.74049 	-0.0303722 	2.45706e-22 0.741468 	-0.030717 	1.05922e-22 0.742298 	-0.0310319 	-1.40184e-23 0.74268 	-0.0312545 	-7.19895e-23 0.74396 	-0.0317065 	-6.10028e-24 0.744895 	-0.0320794 	0 0.745788 	-0.0324435 	0 0.746672 	-0.0328068 	0 0.747052 	-0.0330676 	-5.74701e-25 0.748158 	-0.0335153 	0 0.748973 	-0.0338988 	0 0.74978 	-0.0342816 	0 0.750579 	-0.0346636 	0 0.751088 	-0.0349882 	3.03778e-23 0.751987 	-0.0354256 	0 0.752717 	-0.0358273 	0 0.753437 	-0.0362283 	0 0.75415 	-0.0366285 	0 0.754782 	-0.0370137 	0 0.755052 	-0.0371695 	0 0.755279 	-0.0373166 	0 0.755505 	-0.0374636 	0 0.75573 	-0.0376105 	0 0.755945 	-0.0377516 	0 0.756403 	-0.0380276 	0 0.756857 	-0.0383033 	0 0.757308 	-0.0385787 	0 0.757756 	-0.0388537 	0 0.758112 	-0.039108 	0 0.75888 	-0.0395796 	0 0.759503 	-0.0400201 	0 0.760117 	-0.0404599 	0 0.760723 	-0.0408989 	0 0.761096 	-0.0412872 	0 0.761989 	-0.0418197 	0 0.762525 	-0.0422763 	0 0.763054 	-0.0427322 	0 0.763573 	-0.0431874 	0 0.763718 	-0.0435639 	0 0.764698 	-0.0441469 	0 0.765186 	-0.0446269 	0 0.765627 	-0.045098 	0 0.765945 	-0.045545 	0 0.765971 	-0.0459341 	0 0.76685 	-0.0465261 	0 0.767479 	-0.0470676 	0 0.767833 	-0.0475532 	0 0.767908 	-0.0479857 	0 0.76785 	-0.0483932 	0 0.768627 	-0.0489936 	0 0.769393 	-0.0495931 	0 0.769628 	-0.0500865 	1.2278e-22 0.769492 	-0.0505117 	3.05843e-22 0.769347 	-0.0509363 	4.88919e-22 0.770022 	-0.0515446 	1.82819e-21 0.770686 	-0.0521518 	3.16733e-21 0.770912 	-0.0526771 	3.16432e-21 0.770689 	-0.0531181 	1.80995e-21 0.770457 	-0.0535584 	4.54932e-22 0.77103 	-0.0541737 	2.58244e-22 0.771592 	-0.054788 	6.14836e-23 0.77177 	-0.0553375 	3.90854e-24 0.771494 	-0.0557995 	0 0.771174 	-0.0562543 	0 0.771644 	-0.0568757 	0 0.771937 	-0.0574687 	-2.81261e-23 0.772003 	-0.0580251 	-9.28764e-23 0.771902 	-0.0585506 	-1.58162e-22 0.771492 	-0.0590184 	-2.24452e-22 0.771859 	-0.059645 	-6.36834e-22 0.771865 	-0.0602149 	-8.89315e-22 0.77183 	-0.0607791 	-1.12801e-21 0.771783 	-0.0613424 	-1.36657e-21 0.771407 	-0.0618449 	-1.34556e-21 0.771509 	-0.0624508 	-1.1918e-21 0.771383 	-0.0630225 	-1.19932e-21 0.771246 	-0.0635932 	-1.20749e-21 0.771098 	-0.0641631 	-1.21631e-21 0.770912 	-0.0647276 	-1.24192e-21 0.770911 	-0.0647799 	-1.22297e-21 0.770892 	-0.0648296 	-1.20399e-21 0.770873 	-0.0648793 	-1.18502e-21 0.770854 	-0.064929 	-1.16604e-21 0.770836 	-0.0649782 	-1.14723e-21 0.770718 	-0.0655113 	-8.92156e-22 0.77059 	-0.0660437 	-6.36864e-22 0.770454 	-0.0665754 	-3.81358e-22 0.770308 	-0.0671064 	-1.25638e-22 0.769979 	-0.0676057 	0 0.770005 	-0.068246 	0 0.76977 	-0.0688327 	0 0.769524 	-0.0694186 	0 0.769266 	-0.0700036 	0 0.768628 	-0.0705237 	0 0.76872 	-0.0712003 	0 0.768497 	-0.071813 	1.71851e-22 0.768151 	-0.0724015 	4.06917e-22 0.767592 	-0.0729552 	7.05395e-22 0.766852 	-0.0734797 	1.05761e-21 0.766836 	-0.0741543 	3.26092e-21 0.766806 	-0.0748276 	5.45816e-21 0.766318 	-0.0754106 	5.56088e-21 0.765489 	-0.0759388 	3.1978e-21 0.764649 	-0.0764665 	8.32319e-22 0.764524 	-0.0771379 	2.12997e-21 0.764387 	-0.0778082 	3.42679e-21 0.763886 	-0.0784178 	3.17735e-21 0.762958 	-0.0789476 	1.43244e-21 0.762017 	-0.079477 	-3.14684e-22 0.761783 	-0.0801439 	3.89954e-22 0.761421 	-0.0807917 	8.86538e-22 0.760794 	-0.0813992 	9.33236e-22 0.759995 	-0.0819743 	6.39489e-22 0.758954 	-0.0825037 	-1.42613e-22 0.758612 	-0.083165 	-2.848e-22 0.757909 	-0.0837718 	-2.08837e-22 0.757174 	-0.084375 	-1.21545e-22 0.756426 	-0.0849772 	-3.43923e-23 0.75546 	-0.0855394 	-7.52524e-23 0.755121 	-0.0859152 	-5.22259e-22 0.754635 	-0.0862689 	-3.8916e-22 0.754143 	-0.0866224 	-2.55388e-22 0.753647 	-0.0869755 	-1.20942e-22 0.753171 	-0.0873106 	7.41458e-24 0.752863 	-0.0875616 	9.71532e-23 0.752553 	-0.0878124 	1.87204e-22 0.752241 	-0.088063 	2.77567e-22 0.751927 	-0.0883136 	3.68243e-22 0.751515 	-0.0885471 	6.88563e-23 0.750839 	-0.0891759 	-5.88683e-22 0.750017 	-0.0897749 	-7.37448e-22 0.749183 	-0.090373 	-8.88058e-22 0.748336 	-0.0909704 	-1.04052e-21 0.747145 	-0.0915098 	3.14835e-22 0.746599 	-0.0921799 	2.12822e-22 0.745766 	-0.0927905 	1.70938e-22 0.744827 	-0.0933804 	1.49272e-22 0.743663 	-0.0939327 	1.78976e-22 0.742339 	-0.0944596 	2.44144e-22 0.741682 	-0.0951174 	1.54222e-22 0.741012 	-0.0957743 	6.42055e-23 0.73994 	-0.0963526 	-4.54933e-24 0.738526 	-0.0968709 	-1.16925e-22 0.737098 	-0.097389 	-2.297e-22 0.736331 	-0.0980333 	-1.32715e-21 0.735547 	-0.0986763 	-2.41474e-21 0.734396 	-0.0992584 	-2.09681e-21 0.732956 	-0.0997824 	-1.00206e-21 0.731423 	-0.10029 	3.11074e-22 0.730546 	-0.10092 	1.17668e-21 0.72939 	-0.101504 	1.48165e-21 0.728129 	-0.102072 	1.59707e-21 0.726854 	-0.102639 	1.7113e-21 0.725319 	-0.103156 	1.33788e-21 0.724646 	-0.103535 	1.91831e-21 0.723795 	-0.103884 	1.37708e-21 0.722938 	-0.104233 	8.34803e-22 0.722075 	-0.104582 	2.91471e-22 0.721247 	-0.104914 	-2.27036e-22 0.720776 	-0.105125 	-4.84376e-22 0.720303 	-0.105336 	-7.419e-22 0.719829 	-0.105546 	-9.99608e-22 0.719352 	-0.105757 	-1.2575e-21 0.718778 	-0.105948 	-1.22106e-21 0.717595 	-0.106526 	-1.98922e-21 0.716265 	-0.107073 	-2.35818e-21 0.714922 	-0.10762 	-2.72895e-21 0.713553 	-0.108163 	-3.04287e-21 0.711837 	-0.108641 	-1.66527e-21 0.710748 	-0.109246 	-1.02894e-21 0.709479 	-0.109813 	-5.8053e-22 0.708032 	-0.110342 	-3.17717e-22 0.706293 	-0.110815 	-3.10537e-22 0.704472 	-0.111276 	-3.62492e-22 0.703275 	-0.111861 	-1.0456e-21 0.702062 	-0.112444 	-1.72818e-21 0.700519 	-0.112962 	-1.73142e-21 0.698612 	-0.113405 	-1.03097e-21 0.696688 	-0.113848 	-3.29145e-22 0.695382 	-0.114411 	-7.35249e-22 0.693913 	-0.114944 	-1.03803e-21 0.692238 	-0.115438 	-1.20667e-21 0.690518 	-0.115925 	-1.32387e-21 0.68849 	-0.116349 	-9.31708e-22 0.68726 	-0.116795 	-8.56192e-22 0.685777 	-0.117193 	-9.15057e-22 0.684282 	-0.11759 	-9.74385e-22 0.682776 	-0.117986 	-1.03418e-21 0.681347 	-0.118359 	-1.09097e-21 0.681064 	-0.118441 	-1.11463e-21 0.68078 	-0.118523 	-1.13832e-21 0.680497 	-0.118604 	-1.16204e-21 0.680213 	-0.118686 	-1.18579e-21 0.679883 	-0.118757 	-1.03535e-21 0.678235 	-0.119235 	-7.45337e-22 0.676509 	-0.119696 	-4.46671e-22 0.674769 	-0.120157 	-1.47839e-22 0.673014 	-0.120617 	1.51158e-22 0.67093 	-0.121004 	2.02695e-22 0.669418 	-0.121516 	9.97233e-22 0.667735 	-0.121989 	1.49351e-21 0.665892 	-0.122426 	1.71761e-21 0.663771 	-0.1228 	1.13198e-21 0.661576 	-0.123161 	3.79106e-22 0.659959 	-0.123646 	2.13865e-22 0.658326 	-0.124131 	4.8461e-23 0.656402 	-0.124549 	6.06884e-23 0.654126 	-0.124886 	1.63072e-22 0.651829 	-0.125223 	2.6571e-22 0.650107 	-0.125681 	1.79932e-22 0.648176 	-0.126093 	1.35892e-22 0.646106 	-0.126474 	1.18365e-22 0.644019 	-0.126854 	1.00982e-22 0.641698 	-0.127184 	1.21347e-22 0.640786 	-0.127395 	1.09572e-22 0.639724 	-0.12757 	7.68093e-23 0.638659 	-0.127745 	4.40473e-23 0.637589 	-0.12792 	1.12855e-23 0.636549 	-0.12809 	-2.045e-23 0.635519 	-0.128277 	-8.72338e-23 0.634484 	-0.128463 	-1.54122e-22 0.633446 	-0.12865 	-2.21116e-22 0.632403 	-0.128837 	-2.88215e-22 0.631223 	-0.128985 	-1.6434e-22 0.629336 	-0.129379 	-4.6483e-23 0.627238 	-0.129719 	2.13425e-23 0.625124 	-0.130059 	8.93311e-23 0.622889 	-0.130367 	9.9283e-23 0.62045 	-0.130621 	8.10037e-24 0.61854 	-0.131007 	5.27093e-24 0.616614 	-0.131392 	2.43609e-24 0.614364 	-0.131691 	3.65155e-23 0.611849 	-0.131917 	1.04969e-22 0.60931 	-0.132143 	1.73569e-22 0.607299 	-0.132498 	4.26235e-22 0.605198 	-0.132831 	5.97674e-22 0.602867 	-0.133099 	5.33549e-22 0.60045 	-0.133348 	4.18993e-22 0.597813 	-0.133545 	1.61072e-22 0.596182 	-0.133795 	1.04826e-22 0.594322 	-0.133979 	8.45685e-23 0.592452 	-0.134163 	6.43406e-23 0.590572 	-0.134346 	4.41426e-23 0.588768 	-0.13452 	2.49011e-23 0.588226 	-0.134579 	1.55753e-23 0.587683 	-0.134639 	6.248e-24 0.587139 	-0.134698 	-3.08092e-24 0.586594 	-0.134757 	-1.24114e-23 0.585992 	-0.134796 	2.54308e-23 0.583753 	-0.135047 	3.74407e-22 0.581409 	-0.13527 	5.57524e-22 0.57905 	-0.135493 	7.41669e-22 0.576627 	-0.135697 	7.47506e-22 0.573977 	-0.135823 	-3.16355e-23 0.571798 	-0.13609 	-9.67735e-22 0.569593 	-0.136354 	-1.87426e-21 0.567094 	-0.13653 	-1.94407e-21 0.564372 	-0.136626 	-1.28485e-21 0.561626 	-0.136721 	-6.242e-22 0.559349 	-0.136956 	-1.55548e-21 0.557009 	-0.137173 	-2.26105e-21 0.554448 	-0.13731 	-1.95713e-21 0.551788 	-0.137423 	-1.43655e-21 0.548945 	-0.137487 	-4.93982e-22 0.547161 	-0.13764 	-4.41787e-22 0.545188 	-0.137723 	-3.78143e-22 0.543197 	-0.137803 	-3.14096e-22 0.541195 	-0.137881 	-2.50188e-22 0.53927 	-0.137956 	-1.89137e-22 0.538627 	-0.137987 	-1.4953e-22 0.537982 	-0.138018 	-1.09914e-22 0.537337 	-0.138049 	-7.0289e-23 0.536691 	-0.13808 	-3.0654e-23 0.53599 	-0.138083 	8.1534e-23 0.53354 	-0.138208 	8.32441e-22 0.530981 	-0.1383 	1.2236e-21 0.528404 	-0.138391 	1.61685e-21 0.525756 	-0.138452 	1.55332e-21 0.522932 	-0.138434 	2.39361e-22 0.520511 	-0.13857 	-1.56219e-21 0.518072 	-0.138705 	-3.36285e-21 0.515376 	-0.138745 	-3.32737e-21 0.512484 	-0.138696 	-1.72676e-21 0.509564 	-0.138647 	-1.2144e-22 0.507048 	-0.13875 	1.56833e-21 0.504437 	-0.138813 	2.38401e-21 0.501678 	-0.138807 	1.71055e-21 0.498901 	-0.1388 	1.03372e-21 0.495893 	-0.138722 	-9.22024e-22 0.494598 	-0.138757 	-9.96889e-22 0.493207 	-0.138744 	-1.38887e-21 0.491802 	-0.138726 	-1.81622e-21 0.490392 	-0.138707 	-2.2439e-21 0.489015 	-0.138688 	-2.66025e-21 0.487654 	-0.138678 	-3.07831e-21 0.486289 	-0.138668 	-3.49664e-21 0.484919 	-0.138657 	-3.91526e-21 0.483541 	-0.138643 	-4.2884e-21 0.482082 	-0.138572 	-3.72619e-21 0.479524 	-0.138596 	-2.50011e-21 0.476779 	-0.138546 	-1.84857e-21 0.474016 	-0.138494 	-1.19508e-21 0.471145 	-0.138372 	-1.19482e-21 0.468183 	-0.1382 	-1.63797e-21 0.465546 	-0.138197 	-9.27903e-22 0.462891 	-0.138192 	-2.17202e-22 0.460081 	-0.138092 	-2.89752e-22 0.457055 	-0.137891 	-7.04198e-22 0.453998 	-0.137687 	-1.12087e-21 0.451267 	-0.137652 	-3.49878e-21 0.448392 	-0.13752 	-3.49576e-21 0.445468 	-0.137363 	-2.90457e-21 0.442525 	-0.137205 	-2.31038e-21 0.43953 	-0.137036 	-1.51065e-21 0.439386 	-0.137033 	-1.38292e-21 0.439235 	-0.137024 	-1.36878e-21 0.439084 	-0.137015 	-1.37587e-21 0.438932 	-0.137005 	-1.38298e-21 0.43878 	-0.136996 	-1.39007e-21 0.436124 	-0.136839 	-1.48301e-21 0.433452 	-0.13668 	-1.5797e-21 0.430764 	-0.136521 	-1.68021e-21 0.428052 	-0.136349 	-1.58772e-21 0.425232 	-0.136064 	4.3671e-22 0.422498 	-0.135948 	3.3112e-21 0.419726 	-0.135821 	6.00721e-21 0.416791 	-0.135602 	7.09932e-21 0.413758 	-0.135273 	6.38268e-21 0.410693 	-0.134941 	5.66166e-21 0.407866 	-0.134794 	1.236e-20 0.40499 	-0.134606 	1.64713e-20 0.402028 	-0.134326 	1.46032e-20 0.399047 	-0.134044 	1.2724e-20 0.395884 	-0.133682 	6.39618e-21 0.394579 	-0.133602 	4.86712e-21 0.393234 	-0.133475 	3.84987e-21 0.391877 	-0.133337 	2.94882e-21 0.390517 	-0.133198 	2.04808e-21 0.389185 	-0.133062 	1.16916e-21 0.387587 	-0.132901 	-3.14345e-23 0.385983 	-0.13274 	-1.23177e-21 0.384374 	-0.132578 	-2.43186e-21 0.38278 	-0.132408 	-3.44851e-21 0.381319 	-0.132184 	-3.19876e-21 0.378338 	-0.131936 	4.11184e-21 0.375389 	-0.131629 	8.21954e-21 0.37243 	-0.13131 	1.17503e-20 0.369676 	-0.130905 	8.86594e-21 0.366957 	-0.130471 	4.07742e-21 0.363893 	-0.130192 	6.13669e-21 0.360808 	-0.129912 	8.1961e-21 0.357971 	-0.129525 	5.83333e-21 0.355168 	-0.129088 	2.82989e-21 0.352351 	-0.128624 	-4.20725e-22 0.350136 	-0.128407 	-1.43341e-21 0.348065 	-0.128128 	-1.12046e-21 0.346028 	-0.127831 	-4.50457e-22 0.343981 	-0.127534 	2.19232e-22 0.342001 	-0.127246 	8.63919e-22 0.341076 	-0.127116 	7.68593e-22 0.34015 	-0.126986 	6.72609e-22 0.339221 	-0.126855 	5.75962e-22 0.338331 	-0.126718 	7.88179e-22 0.337546 	-0.126562 	1.82004e-21 0.334352 	-0.126146 	-1.86724e-21 0.331257 	-0.12569 	-3.28