# vtk DataFile Version 2.0
track0
ASCII
DATASET POLYDATA
POINTS 10932 float
-0.0205 0.001 1e-05
-0.02052 0.00100026 1e-05
-0.02054 0.00100046 1e-05
-0.02056 0.00100062 1e-05
-0.02058 0.00100072 1e-05
-0.0206 0.00100077 1e-05
-0.0205 0.00367778 1e-05
-0.02052 0.0036779 1e-05
-0.02054 0.00367799 1e-05
-0.02056 0.00367806 1e-05
-0.02058 0.00367811 1e-05
-0.0206 0.00367814 1e-05
-0.0205 0.00635556 1e-05
-0.02052 0.00635559 1e-05
-0.02054 0.00635561 1e-05
-0.02056 0.00635563 1e-05
-0.02058 0.00635565 1e-05
-0.0206 0.00635565 1e-05
-0.0205 0.00903333 1e-05
-0.02052 0.00903335 1e-05
-0.02054 0.00903336 1e-05
-0.02056 0.00903337 1e-05
-0.02058 0.00903337 1e-05
-0.0206 0.00903337 1e-05
-0.0205 0.0117111 1e-05
-0.02052 0.0117111 1e-05
-0.02054 0.0117111 1e-05
-0.02056 0.0117111 1e-05
-0.02058 0.0117111 1e-05
-0.0206 0.0117111 1e-05
-0.0205 0.0143889 1e-05
-0.02052 0.0143889 1e-05
-0.02054 0.0143889 1e-05
-0.02056 0.0143889 1e-05
-0.02058 0.0143889 1e-05
-0.0206 0.0143889 1e-05
-0.0205 0.0170667 1e-05
-0.02052 0.0170666 1e-05
-0.02054 0.0170666 1e-05
-0.02056 0.0170666 1e-05
-0.02058 0.0170666 1e-05
-0.0206 0.0170666 1e-05
-0.0205 0.0197444 1e-05
-0.02052 0.0197444 1e-05
-0.02054 0.0197443 1e-05
-0.02056 0.0197443 1e-05
-0.02058 0.0197443 1e-05
-0.0206 0.0197443 1e-05
-0.0205 0.0224222 1e-05
-0.02052 0.0224221 1e-05
-0.02054 0.022422 1e-05
-0.02056 0.0224219 1e-05
-0.02058 0.0224218 1e-05
-0.0206 0.0224218 1e-05
-0.0205 0.0251 1e-05
-0.02052 0.0250982 1e-05
-0.02054 0.0250967 1e-05
-0.0205601 0.0250956 1e-05
-0.0205802 0.0250949 1e-05
-0.0206 0.0250945 1e-05
-0.0205 0.001 1e-05
-0.0202034 0.000996197 1e-05
-0.0199071 0.000984889 1e-05
-0.0196111 0.000966198 1e-05
-0.0193156 0.000939961 1e-05
-0.0190172 0.000906929 1e-05
-0.0187132 0.000873111 1e-05
-0.0184093 0.000839439 1e-05
-0.0181054 0.000805912 1e-05
-0.0178013 0.000773764 1e-05
-0.0174976 0.000743949 1e-05
-0.0173143 0.000727272 1e-05
-0.017131 0.000711434 1e-05
-0.0169476 0.000696303 1e-05
-0.0167642 0.000681806 1e-05
-0.0164834 0.000660565 1e-05
-0.0163945 0.000654278 1e-05
-0.0163055 0.000648132 1e-05
-0.0162165 0.000642125 1e-05
-0.0161276 0.000636254 1e-05
-0.0160387 0.000630514 1e-05
-0.0157586 0.000612637 1e-05
-0.0154784 0.000596001 1e-05
-0.0151981 0.000580406 1e-05
-0.0149178 0.000565802 1e-05
-0.0146381 0.000552003 1e-05
-0.0143692 0.000539117 1e-05
-0.0141002 0.000527153 1e-05
-0.0138312 0.000516047 1e-05
-0.0135621 0.000505561 1e-05
-0.0132934 0.000495358 1e-05
-0.0130353 0.00048581 1e-05
-0.0127771 0.000476966 1e-05
-0.0125188 0.000468784 1e-05
-0.0122606 0.000460975 1e-05
-0.0120025 0.000453337 1e-05
-0.0117547 0.000446158 1e-05
-0.0115068 0.000439511 1e-05
-0.0112589 0.000433312 1e-05
-0.011011 0.000427342 1e-05
-0.0107632 0.000421516 1e-05
-0.0105252 0.000416011 1e-05
-0.0102873 0.000410913 1e-05
-0.0100493 0.000406071 1e-05
-0.00981129 0.000401397 1e-05
-0.00957337 0.000396862 1e-05
-0.00934491 0.000392553 1e-05
-0.00911645 0.000388562 1e-05
-0.00888798 0.00038471 1e-05
-0.00865951 0.00038098 1e-05
-0.00843108 0.000377373 1e-05
-0.00821175 0.000373934 1e-05
-0.00799242 0.00037072 1e-05
-0.00777308 0.000367598 1e-05
-0.00755375 0.000364568 1e-05
-0.00733443 0.000361628 1e-05
-0.00712387 0.000358833 1e-05
-0.0069133 0.000356189 1e-05
-0.00670273 0.000353614 1e-05
-0.00649216 0.000351107 1e-05
-0.0062816 0.000348667 1e-05
-0.00607944 0.000346351 1e-05
-0.00587729 0.000344135 1e-05
-0.00567513 0.000341968 1e-05
-0.00547298 0.000339851 1e-05
-0.00527083 0.000337783 1e-05
-0.00507675 0.000335822 1e-05
-0.00488267 0.000333922 1e-05
-0.0046886 0.000332055 1e-05
-0.00449452 0.00033022 1e-05
-0.00430044 0.000328418 1e-05
-0.00411412 0.000326707 1e-05
-0.0039278 0.000325024 1e-05
-0.00374147 0.000323354 1e-05
-0.00355515 0.000321698 1e-05
-0.00336883 0.000320056 1e-05
-0.00334103 0.000319813 1e-05
-0.00331323 0.00031957 1e-05
-0.00328543 0.000319326 1e-05
-0.00325763 0.000319082 1e-05
-0.00323017 0.000318841 1e-05
-0.00307903 0.000317509 1e-05
-0.00292788 0.000316167 1e-05
-0.00277673 0.000314814 1e-05
-0.00262558 0.00031345 1e-05
-0.00247443 0.000312075 1e-05
-0.0023027 0.000310482 1e-05
-0.00213097 0.00030884 1e-05
-0.00195924 0.000307125 1e-05
-0.00178751 0.000305336 1e-05
-0.00161577 0.000303476 1e-05
-0.0014509 0.000301573 1e-05
-0.00128603 0.000299486 1e-05
-0.00112117 0.000297103 1e-05
-0.000956308 0.000294431 1e-05
-0.000791418 0.000291471 1e-05
-0.000633135 0.00028821 1e-05
-0.000474865 0.000284331 1e-05
-0.000316619 0.000279588 1e-05
-0.0001584 0.000273991 1e-05
0 0.000267541 1e-05
0.000105677 0.000262503 1e-05
0.000211295 0.000256336 1e-05
0.000316883 0.00024968 1e-05
0.000422438 0.000242529 1e-05
0.000528387 0.000235095 1e-05
0.000634886 0.000228475 1e-05
0.000741335 0.000221092 1e-05
0.000847758 0.000213336 1e-05
0.000954179 0.000205568 1e-05
0.00106088 0.000198354 1e-05
0.00116821 0.000191939 1e-05
0.00127552 0.000185185 1e-05
0.0013828 0.000178102 1e-05
0.0014901 0.000171161 1e-05
0.00159752 0.000164769 1e-05
0.00170568 0.000158908 1e-05
0.00181383 0.000152885 1e-05
0.00192198 0.000146703 1e-05
0.00203013 0.000140628 1e-05
0.00213833 0.000134946 1e-05
0.00224733 0.000129624 1e-05
0.00235633 0.000124223 1e-05
0.00246532 0.000118763 1e-05
0.00257432 0.000113421 1e-05
0.00268334 0.000108331 1e-05
0.00279319 0.000103496 1e-05
0.00290304 9.86165e-05 1e-05
0.00301288 9.3759e-05 1e-05
0.00312274 8.89977e-05 1e-05
0.00323259 8.43779e-05 1e-05
0.00334329 7.99427e-05 1e-05
0.00345399 7.54773e-05 1e-05
0.0035647 7.1068e-05 1e-05
0.00367541 6.67346e-05 1e-05
0.00378611 6.24768e-05 1e-05
0.00389767 5.83569e-05 1e-05
0.00400924 5.42235e-05 1e-05
0.0041208 5.01502e-05 1e-05
0.00423237 4.61365e-05 1e-05
0.00434393 4.21822e-05 1e-05
0.00445636 3.83074e-05 1e-05
0.00456879 3.44399e-05 1e-05
0.00468123 3.06195e-05 1e-05
0.00479366 2.68457e-05 1e-05
0.00490609 2.31183e-05 1e-05
0.0050194 1.9431e-05 1e-05
0.0051327 1.57623e-05 1e-05
0.00524601 1.21296e-05 1e-05
0.00535932 8.53266e-06 1e-05
0.00547262 4.9715e-06 1e-05
0.00550461 3.9772e-06 1e-05
0.0055366 2.98412e-06 1e-05
0.00556858 1.99313e-06 1e-05
0.00560057 1.00425e-06 1e-05
0.00563312 0 1e-05
0.00571521 -2.52689e-06 1e-05
0.0057973 -5.04034e-06 1e-05
0.00587938 -7.54041e-06 1e-05
0.00596147 -1.00272e-05 1e-05
0.00604356 -1.25006e-05 1e-05
0.00615863 -1.59387e-05 1e-05
0.00627371 -1.93718e-05 1e-05
0.00638878 -2.27871e-05 1e-05
0.00650386 -2.61847e-05 1e-05
0.00661893 -2.95646e-05 1e-05
0.0067349 -3.29312e-05 1e-05
0.00685087 -3.63132e-05 1e-05
0.00696684 -3.96845e-05 1e-05
0.00708281 -4.30452e-05 1e-05
0.00719878 -4.63954e-05 1e-05
0.00731565 -4.97311e-05 1e-05
0.00743252 -5.30979e-05 1e-05
0.00754939 -5.64603e-05 1e-05
0.00766626 -5.98183e-05 1e-05
0.00778313 -6.31721e-05 1e-05
0.00790091 -6.65121e-05 1e-05
0.00801869 -6.98956e-05 1e-05
0.00813647 -7.32805e-05 1e-05
0.00825425 -7.66667e-05 1e-05
0.00837203 -8.00544e-05 1e-05
0.00849073 -8.34304e-05 1e-05
0.00860942 -8.68563e-05 1e-05
0.00872812 -9.02927e-05 1e-05
0.00884681 -9.37357e-05 1e-05
0.00896551 -9.71783e-05 1e-05
0.00908513 -0.000100619 1e-05
0.00920475 -0.000104111 1e-05
0.00932436 -0.000107626 1e-05
0.00944398 -0.000111152 1e-05
0.0095636 -0.000114678 1e-05
0.00968415 -0.000118211 1e-05
0.0098047 -0.000121795 1e-05
0.00992524 -0.000125415 1e-05
0.0100458 -0.000129051 1e-05
0.0101663 -0.000132686 1e-05
0.0102878 -0.000136337 1e-05
0.0104093 -0.000140041 1e-05
0.0105308 -0.000143789 1e-05
0.0106523 -0.000147559 1e-05
0.0107738 -0.000151328 1e-05
0.0108962 -0.000155122 1e-05
0.0110186 -0.00015897 1e-05
0.0111411 -0.00016287 1e-05
0.0112635 -0.000166795 1e-05
0.0113859 -0.000170723 1e-05
0.0115093 -0.000174683 1e-05
0.0116327 -0.000178698 1e-05
0.0117561 -0.000182769 1e-05
0.0118794 -0.000186869 1e-05
0.0120028 -0.000190979 1e-05
0.0121272 -0.000195128 1e-05
0.0122515 -0.000199335 1e-05
0.0123759 -0.000203598 1e-05
0.0125002 -0.000207898 1e-05
0.0126245 -0.000212212 1e-05
0.0127498 -0.000216574 1e-05
0.0128752 -0.000220996 1e-05
0.0130005 -0.000225476 1e-05
0.0131258 -0.000229998 1e-05
0.0132511 -0.00023454 1e-05
0.0133774 -0.000239137 1e-05
0.0135036 -0.000243796 1e-05
0.0136299 -0.000248515 1e-05
0.0137562 -0.00025328 1e-05
0.0138825 -0.000258073 1e-05
0.0140098 -0.000262928 1e-05
0.014137 -0.000267847 1e-05
0.0142643 -0.000272825 1e-05
0.0143915 -0.000277852 1e-05
0.0145188 -0.000282918 1e-05
0.0146471 -0.000288054 1e-05
0.0147753 -0.000293256 1e-05
0.0149036 -0.000298516 1e-05
0.0150318 -0.000303829 1e-05
0.0151601 -0.000309191 1e-05
0.0152893 -0.000314631 1e-05
0.0154186 -0.000320139 1e-05
0.0155478 -0.000325705 1e-05
0.0156771 -0.000331327 1e-05
0.0158063 -0.000337007 1e-05
0.0159366 -0.000342773 1e-05
0.0160668 -0.000348608 1e-05
0.0161971 -0.000354503 1e-05
0.0163273 -0.000360458 1e-05
0.0164576 -0.000366474 1e-05
0.0165889 -0.000372589 1e-05
0.0167201 -0.000378773 1e-05
0.0168514 -0.000385021 1e-05
0.0169827 -0.000391332 1e-05
0.0171139 -0.000397709 1e-05
0.0171603 -0.000399981 1e-05
0.0172066 -0.000402263 1e-05
0.017253 -0.000404552 1e-05
0.0172993 -0.00040685 1e-05
0.0173438 -0.000409067 1e-05
0.0174302 -0.000413377 1e-05
0.0175165 -0.000417716 1e-05
0.0176028 -0.000422084 1e-05
0.0176891 -0.00042648 1e-05
0.0177754 -0.000430906 1e-05
0.0179087 -0.000437783 1e-05
0.018042 -0.000444736 1e-05
0.0181753 -0.000451761 1e-05
0.0183086 -0.000458856 1e-05
0.018442 -0.000466025 1e-05
0.0185763 -0.000473313 1e-05
0.0187107 -0.000480687 1e-05
0.018845 -0.000488135 1e-05
0.0189794 -0.000495658 1e-05
0.0191137 -0.000503259 1e-05
0.0192491 -0.000510982 1e-05
0.0193845 -0.000518799 1e-05
0.0195199 -0.000526695 1e-05
0.0196553 -0.000534669 1e-05
0.0197907 -0.000542722 1e-05
0.0199272 -0.000550905 1e-05
0.0200636 -0.000559183 1e-05
0.0202001 -0.000567551 1e-05
0.0203365 -0.000576 1e-05
0.020473 -0.000584529 1e-05
0.0206105 -0.000593196 1e-05
0.020748 -0.000601961 1e-05
0.0208855 -0.000610823 1e-05
0.021023 -0.000619771 1e-05
0.0211606 -0.000628801 1e-05
0.0212991 -0.000637976 1e-05
0.0214377 -0.000647252 1e-05
0.0215763 -0.000656628 1e-05
[...]
POINT_DATA 10932
 FIELD attributes 2
p 1 10932 float
-0.511821 -0.511595 -0.511365 -0.511129 -0.510889 -0.510643
-0.382216 -0.382207 -0.3822 -0.382195 -0.382191 -0.382189
-0.233004 -0.232884 -0.232763 -0.232644 -0.232524 -0.232427
-0.150939 -0.150991 -0.151044 -0.151097 -0.15115 -0.151202
-0.117177 -0.117312 -0.117447 -0.117582 -0.117717 -0.117852
-0.123905 -0.124035 -0.124164 -0.124293 -0.124423 -0.124552
-0.165452 -0.165542 -0.165633 -0.165724 -0.165815 -0.165907
-0.263149 -0.263202 -0.263255 -0.263309 -0.263363 -0.263418
-0.426094 -0.42607 -0.426047 -0.426027 -0.426009 -0.425993
-0.402337 -0.403122 -0.403868 -0.404575 -0.405242 -0.405862
-0.511821 -0.49742 -0.483402 -0.470821 -0.455096 -0.418611 -0.385034 -0.351466 -0.327944 -0.312787 -0.297848 -0.288906 -0.280936 -0.273448 -0.265965 -0.254526 -0.250626 -0.246733 -0.242849 -0.239081 -0.23605 -0.225834 -0.216255 -0.206722 -0.197831 -0.190253 -0.182087 -0.173995 -0.166981 -0.16136 -0.15575 -0.149594 -0.143452 -0.138305 -0.134079 -0.129858 -0.125124 -0.120588 -0.116753 -0.113319 -0.110111 -0.106424 -0.103177 -0.100213 -0.0973643 -0.0949209 -0.0920324 -0.0896898 -0.0873914 -0.0850938 -0.0831913 -0.0810078 -0.079226 -0.0774449 -0.0756643 -0.0741281 -0.0725039 -0.0711336 -0.0697636 -0.0683941 -0.0671727 -0.0659848 -0.0649533 -0.0639221 -0.0628912 -0.0619445 -0.0611174 -0.0603812 -0.0596451 -0.0589092 -0.058213 -0.0577147 -0.0572604 -0.0568061 -0.0563519 -0.0559027 -0.0558768 -0.0558569 -0.055837 -0.0558171 -0.0557974 -0.0556812 -0.0555649 -0.0554485 -0.0553319 -0.0552601 -0.0555265 -0.055845 -0.0561627 -0.0564795 -0.0569239 -0.05796 -0.059182 -0.0603995 -0.0616125 -0.0632371 -0.0653905 -0.0675309 -0.0696712 -0.0718115 -0.0768928 -0.0785605 -0.0782979 -0.078083 -0.0773613 -0.0743114 -0.0690875 -0.0649666 -0.0619325 -0.060428 -0.0594813 -0.0559487 -0.0524334 -0.0514196 -0.0526594 -0.0538775 -0.053009 -0.0521474 -0.0520435 -0.0529209 -0.0537856 -0.0534457 -0.0531274 -0.0529843 -0.0533063 -0.053747 -0.0534983 -0.0533368 -0.0532712 -0.0533726 -0.0537581 -0.0536993 -0.0537316 -0.0537839 -0.0538352 -0.0541986 -0.0542653 -0.0543797 -0.054493 -0.0546052 -0.054859 -0.0549829 -0.0551288 -0.055274 -0.0554185 -0.0556211 -0.0557864 -0.0559621 -0.0561373 -0.056312 -0.0564963 -0.0565514 -0.0566083 -0.0566653 -0.0567222 -0.0567801 -0.0569223 -0.0570645 -0.0572065 -0.0573483 -0.0574972 -0.0576973 -0.0579177 -0.0581379 -0.0583579 -0.0585932 -0.0587897 -0.0590266 -0.0592635 -0.0595003 -0.0597591 -0.0599544 -0.0602049 -0.0604554 -0.0607059 -0.0609854 -0.0611828 -0.061445 -0.0617073 -0.0619696 -0.0622666 -0.0624724 -0.0627379 -0.0630093 -0.0632876 -0.0635917 -0.0638121 -0.0640718 -0.0643499 -0.0646409 -0.0649498 -0.0651815 -0.065436 -0.0657183 -0.0660187 -0.0663297 -0.0665689 -0.0668179 -0.0671019 -0.0674085 -0.0677192 -0.067963 -0.0682072 -0.0684913 -0.0688 -0.0691087 -0.0693549 -0.0696014 -0.0698797 -0.0701842 -0.0704889 -0.0707346 -0.0709807 -0.0712522 -0.0715505 -0.0718489 -0.0720917 -0.0723348 -0.0725986 -0.0728887 -0.073179 -0.0734165 -0.0736554 -0.073912 -0.0741889 -0.0744689 -0.0746987 -0.0749343 -0.0751815 -0.0754402 -0.0757077 -0.0759273 -0.0761565 -0.076392 -0.0766319 -0.076885 -0.0770921 -0.077312 -0.0775335 -0.0777553 -0.0779904 -0.0781855 -0.0783904 -0.0785957 -0.0788014 -0.0790138 -0.0791952 -0.0793818 -0.0795688 -0.0797561 -0.0799452 -0.0800022 -0.0800603 -0.0801185 -0.0801767 -0.0802327 -0.0803406 -0.0804486 -0.0805568 -0.0806652 -0.0807766 -0.0809162 -0.081059 -0.0812021 -0.0813456 -0.0814963 -0.0816083 -0.0817267 -0.0818456 -0.0819649 -0.0820946 -0.0821786 -0.0822704 -0.0823632 -0.0824592 -0.0825623 -0.0826197 -0.0826807 -0.0827456 -0.0828165 -0.0828905 -0.0829195 -0.082949 -0.0829848 -0.0830275 -0.0830705 -0.0830694 -0.0830688 -0.0830737 -0.0830838 -0.0830945 -0.0830617 -0.0830294 -0.0830019 -0.082978 -0.0829547 -0.0828887 -0.0828247 -0.0827629 -0.0827025 -0.0826441 -0.0825435 -0.0824454 -0.0823479 -0.0822511 -0.0821558 -0.0820199 -0.081885 -0.0817507 -0.081617 -0.0814839 -0.081469 -0.0814541 -0.0814392 -0.0814242 -0.0814095 -0.0812513 -0.0810936 -0.0809364 -0.0807798 -0.0806235 -0.0804113 -0.0802 -0.0799894 -0.0797794 -0.0795684 -0.0793172 -0.0790665 -0.0788165 -0.0785659 -0.0783146 -0.0780236 -0.0777334 -0.0774431 -0.0771504 -0.0768581 -0.0765269 -0.0761966 -0.0758636 -0.0755296 -0.075196 -0.0748243 -0.0744516 -0.0740761 -0.073701 -0.0733259 -0.0729133 -0.0724957 -0.0720786 -0.0716623 -0.0712459 -0.0709767 -0.070705 -0.0704336 -0.0701625 -0.0699052 -0.0697152 -0.0695254 -0.0693358 -0.0691462 -0.0689546 -0.0684538 -0.0679534 -0.0674538 -0.066955 -0.0664485 -0.0659071 -0.0653659 -0.0648252 -0.0642799 -0.063731 -0.0631486 -0.0625672 -0.0619833 -0.061393 -0.0608029 -0.0601802 -0.0595584 -0.0589273 -0.0582967 -0.0576661 -0.0570036 -0.0563342 -0.055663 -0.0549927 -0.0543223 -0.0538783 -0.0534293 -0.0529808 -0.0525325 -0.052106 -0.0518397 -0.0515736 -0.0513076 -0.0510417 -0.0507721 -0.0500218 -0.0492723 -0.0485237 -0.0477757 -0.0470144 -0.0462267 -0.0454399 -0.0446542 -0.0438586 -0.0430601 -0.0422358 -0.0414124 -0.0405822 -0.0397481 -0.0389137 -0.0380541 -0.0371898 -0.036319 -0.0354494 -0.0345804 -0.0338279 -0.0330667 -0.0323063 -0.0315466 -0.0308314 -0.0306783 -0.0305253 -0.0303723 -0.0302193 -0.030064 -0.0291243 -0.0281858 -0.0272483 -0.0263117 -0.0253586 -0.0243866 -0.0234165 -0.0224482 -0.0214681 -0.0204843 -0.0194822 -0.0184813 -0.0174714 -0.0164604 -0.0154482 -0.0144182 -0.0133806 -0.0123386 -0.0112976 -0.0102578 -0.00973584 -0.00920783 -0.00868008 -0.00815259 -0.00764187 -0.00709672 -0.00655184 -0.00600723 -0.0054629 -0.00491003 -0.00381193 -0.00271661 -0.00162234 -0.000522856 0.000589165 0.00171121 0.00283218 0.00395431 0.00508619 0.00621995 0.00736314 0.00850919 0.00966559 0.0108199 0.0119735 0.0128701 0.0137773 0.0146838 0.0155896 0.0164532 0.0167314 0.0170095 0.0172876 0.0175656 0.0178481 0.0190468 0.0202435 0.0214391 0.0226371 0.0238524 0.0250688 0.0262841 0.0274978 0.0287247 0.0299542 0.0311847 0.032417 0.0336613 0.0349031 0.0361451 0.0370784 0.0380218 0.0389652 0.0399078 0.0408097 0.0411319 0.041454 0.0417761 0.0420981 0.0424255 0.0436988 0.0449699 0.04624 0.047514 0.0488051 0.0500889 0.0513716 0.0526555 0.0539497 0.0552477 0.0565385 0.0578341 0.0591385 0.0604419 0.061745 0.0623869 0.0630352 0.0636839 0.0643323 0.0649627 0.0656303 0.0662975 0.0669645 0.0676316 0.0683098 0.0696316 0.0709498 0.0722669 0.0735943 0.0749339 0.0762578 0.0775806 0.0789137 0.0802483 0.0815879 0.0829123 0.0842483 0.0855863 0.0869231 0.0882647 0.088332 0.0883999 0.0884679 0.0885358 0.0886036 0.0898798 0.0911551 0.0924293 0.0937044 0.0950021 0.0963454 0.0976874 0.0990289 0.100385 0.101747 0.103086 0.104429 0.105783 0.107135 0.10849 0.109086 0.109686 0.110288 0.110889 0.111476 0.11223 0.112982 0.113735 0.114489 0.115258 0.116604 0.117951 0.119296 0.12066 0.122037 0.123375 0.124712 0.126068 0.127426 0.128792 0.129726 0.130671 0.131619 0.132566 0.133477 0.133887 0.134297 0.134707 0.135118 0.135535 0.136877 0.138218 0.139559 0.14091 0.142277 0.143608 0.144937 0.146282 0.147626 0.148979 0.149609 0.150244 0.15088 0.151517 0.152136 0.15284 0.153543 0.154247 0.154952 0.155666 0.156993 0.158319 0.159645 0.160981 0.162328 0.163641 0.164959 0.166281 0.167602 0.168892 0.168901 0.168909 0.168918 0.168926 0.168934 0.170252 0.171569 0.172885 0.174205 0.175542 0.176844 0.178145 0.179454 0.180763 0.182083 0.182465 0.182848 0.183232 0.183616 0.183995 0.184914 0.185832 0.18675 0.187672 0.188602 0.18989 0.191177 0.192469 0.193761 0.195067 0.195606 0.196146 0.196687 0.197229 0.197758 0.198504 0.19925 0.199995 0.200744 0.201499 0.20277 0.20404 0.205314 0.206591 0.20788 0.208388 0.208897 0.209408 0.209919 0.21042 0.21118 0.211939 0.212697 0.21346 0.214229 0.215481 0.216732 0.217989 0.219249 0.22052 0.220858 0.221196 0.221536 0.221876 0.222212 0.223125 0.224037 0.224949 0.225868 0.226793 0.228024 0.229255 0.230496 0.231738 0.232987 0.233064 0.23314 0.233217 0.233294 0.23337 0.234528 0.235686 0.236844 0.238014 0.239189 0.240165 0.241144 0.242133 0.243122 0.244111 0.244347 0.244583 0.244818 0.245058 0.245298 0.246503 0.247713 0.248928 0.250162 0.251387 0.25205 0.252714 0.253388 0.254062 0.25475 0.255273 0.255797 0.25632 0.256853 0.257384 0.258552 0.25972 0.260905 0.262107 0.263288 0.263758 0.26423 0.26471 0.265189 0.265688 0.266362 0.267036 0.267709 0.268396 0.269077 0.270187 0.271296 0.272425 0.273576 0.274696 0.275242 0.275795 0.276354 0.276914 0.277525 0.278042 0.278559 0.279075 0.279603 0.280137 0.281159 0.282188 0.283239 0.284332 0.285394 0.286361 0.287346 0.288354 0.289358 0.290353 0.290573 0.2908 0.29103 0.291259 0.291504 0.292229 0.292953 0.293674 0.294397 0.295136 0.296015 0.296906 0.297809 0.298743 0.299664 0.300491 0.301314 0.302164 0.303044 0.303915 0.304693 0.305492 0.306296 0.307097 0.30791 0.308374 0.308851 0.309327 0.309801 0.310372 0.310635 0.310899 0.311161 0.311424 0.311659 0.312406 0.313128 0.313847 0.314564 0.315181 0.315935 0.316627 0.317306 0.317936 0.318507 0.319222 0.319924 0.320566 0.321109 0.321649 0.322327 0.323002 0.323596 0.324107 0.324618 0.32526 0.325901 0.326457 0.326941 0.327423 0.328032 0.328614 0.329134 0.329618 0.330073 0.33065 0.331172 0.331664 0.332146 0.332575 0.333122 0.333589 0.334055 0.33452 0.334936 0.335431 0.335872 0.336311 0.336751 0.337161 0.337609 0.338024 0.338439 0.338853 0.339257 0.339543 0.339816 0.34009 0.340363 0.340681 0.340789 0.340898 0.341007 0.341116 0.341211 0.341593 0.341962 0.342331 0.342699 0.343011 0.343412 0.343758 0.344104 0.34445 0.344702 0.345117 0.345441 0.345766 0.34609 0.346288 0.346713 0.347016 0.34732 0.347623 0.347772 0.348203 0.348487 0.34877 0.349048 0.349158 0.349576 0.349856 0.35012 0.350352 0.350448 0.350843 0.351129 0.351374 0.351564 0.351647 0.352019 0.352308 0.352535 0.352687 0.352756 0.353107 0.353396 0.353606 0.353723 0.353781 0.35411 0.354398 0.354591 0.354676 0.354722 0.355031 0.355317 0.355494 0.355549 0.355584 0.355874 0.356155 0.356316 0.356345 0.356369 0.35664 0.356909 0.357053 0.357067 0.357081 0.357332 0.357584 0.357713 0.357717 0.357721 0.357955 0.358188 0.358303 0.358298 0.358293 0.35851 0.358726 0.358827 0.358814 0.3588 0.359 0.359199 0.359288 0.359266 0.359244 0.359428 0.359611 0.359687 0.359657 0.359627 0.359796 0.359963 0.360028 0.35999 0.359953 0.360106 0.360259 0.360312 0.360268 0.360223 0.360362 0.360501 0.360543 0.360492 0.36044 0.360565 0.36069 0.360722 0.360664 0.360606 0.360718 0.360829 0.360852 0.360788 0.360724 0.360823 0.360921 0.360934 0.360864 0.360794 0.360881 0.360967 0.360971 0.360896 0.360821 0.360895 0.360967 0.360962 0.360885 0.360804 0.360867 0.360924 0.360911 0.360832 0.360747 0.360799 0.360842 0.360821 0.360741 0.360651 0.360693 0.360722 0.360694 0.360612 0.360517 0.360549 0.360567 0.360532 0.360447 0.360349 0.360371 0.360377 0.360335 0.360249 0.360147 0.36016 0.360155 0.360107 0.360018 0.359912 0.359917 0.359902 0.359848 0.359757 0.359648 0.359644 0.35962 0.35956 0.359467 0.359355 0.359343 0.35931 0.359245 0.35915 0.359035 0.359016 0.358975 0.358905 0.358808 0.358691 0.358664 0.358617 0.358542 0.358443 0.358324 0.358291 0.358237 0.358159 0.358058 0.357937 0.357899 0.357839 0.357757 0.357656 0.357534 0.35749 0.357426 0.357341 0.357239 0.357117 0.357069 0.357001 0.356916 0.356814 0.356693 0.356642 0.356572 0.356486 0.356386 0.356267 0.356215 0.356144 0.35606 0.355963 0.355849 0.355798 0.35573 0.35565 0.355558 0.355451 0.355403 0.35534 0.355266 0.355183 0.355086 0.355044 0.35499 0.354927 0.354856 0.354774 0.354743 0.354703 0.354658 0.354607 0.354548 0.354538 0.354522 0.354504 0.354483 0.354459 0.35448 0.354504 0.354532 0.354563 0.354598 0.354676 0.354763 0.354858 0.354959 0.355068 0.355223 0.355419 0.355655 0.35593 0.35624 0.356616 0.356985 0.357347 0.357682 0.358001 0.358438 0.359004 0.359924 0.361164 0.362482 0.364165 0.365271 0.365163 0.364316 0.362688 0.361541 0.360135 0.358648 0.357142 0.355411 0.354038 0.352755 0.351472 0.350189 0.349013 0.3481 0.347072 0.346044 0.345016 0.343905 0.342902 0.341761 0.340621 0.339481 0.338237 0.33702 0.335729 0.334438 0.333147 0.331801 0.330475 0.329103 0.327732 0.32636 0.324958 0.323541 0.32209 0.32064 0.31919 0.31772 0.316183 0.314626 0.313069 0.311512 0.309947 0.309289 0.308625 0.30796 0.307296 0.305802