/*--------------------------------*- C++ -*----------------------------------*\
  =========                 |
  \\      /  F ield         | OpenFOAM: The Open Source CFD Toolbox
   \\    /   O peration     | Website:  https://openfoam.org
    \\  /    A nd           | Version:  7
     \\/     M anipulation  |
\*---------------------------------------------------------------------------*/
FoamFile
{
    version     2.0;
    format      ascii;
    class       volScalarField;
    location    "0.4";
    object      alpha.water;
}
// * * * * * * * * * * * * * * * * * * * * * * * * * * * * * * * * * * * * * //

dimensions      [0 0 0 0 0 0 0];

internalField   nonuniform List<scalar> 
6000
(
0
0
0
0
0
0
0
0
0
0
0
0
0
0
0
0
0
0
0
0
0
0
0
0
0
0
0
0
0
0
0
0
0
0
0
0
0
0
0
0
0
0
0
0
0
0
0
0
0
0
0
0
0
0
0
0
0
0
0
0
0
0
0
0
0
0
0
0
0
0
0
0
0
0
0
0
0
0
0
0
0
0
0
0
0
0
0
0
0
0
0
0
0
0
0
0
0
0
0
0
0
0
0
0
0
0
0
0
0
0
0
0
0
0
0
0
0
0
0
0
0
0
0
0
0
0
0
0
0
0
0
0
0
0
0
0
0
0
0
0
0
0
0
0
0
0
0
0
0
0
0
0
0
0
0
0
0
0
0
0
0
0
0
0
0
0
0
0
0
0
0
0
0
0
0
0
0
0
0
0
0
0
0
0
0
0
0
0
0
0
0
0
0
0
0
0
0
0
0
0
0
0
0
0
0
0
0
0
0
0
0
0
0
0
0
0
0
0
0
0
0
0
0
0
0
0
0
0
0
0
0
0
0
0
0
0
0
0
0
0
0
0
0
0
0
0
0
0
0
0
0
0
0
0
0
0
0
0
0
0
0
0
0
0
0
0
0
0
0
0
0
0
0
0
0
0
0
0
0
0
0
0
0
0
0
0
0
0
0
0
0
0
0
0
0
0
0
0
0
0
0
0
0
0
0
0
0
0
0
0
0
0
0
0
0
0
0
0
0
0
0
0
0
0
0
0
0
0
0
0
0
0
0
0
0
0
0
0
0
0
0
0
0
0
0
0
0
0
0
0
0
0
0
0
0
0
0
0
0
0
0
0
0
0
0
0
0
0
0
0
0
0
0
0
0
0
0
0
0
0
0
0
0
0
0
0
0
0
0
0
0
0
0
0
0
0
0
0
0
0
0
0
0
0
0
0
0
0
0
1.3000664138063e-32
1.7041244595274e-31
1.0825712292404e-30
4.4347105283528e-30
1.3156109698411e-29
3.0105672081074e-29
5.5288957196652e-29
8.3732856338945e-29
1.0666044123997e-28
1.1600439231718e-28
1.0899652273048e-28
8.9313103783415e-29
6.4318093865571e-29
4.09681192418e-29
2.3204984014794e-29
1.174079390545e-29
5.3265010761694e-30
2.173653757212e-30
7.9996756727069e-31
2.6606596400792e-31
8.0098456731611e-32
2.1849889045569e-32
5.4041950688062e-33
1.2120908113599e-33
2.4645114914364e-34
4.5393557048607e-35
7.5650096192945e-36
1.1388490716218e-36
1.5454342137499e-37
1.8855168693949e-38
2.0617377347195e-39
2.012880792035e-40
1.7467801801388e-41
1.3402888006107e-42
9.0363481576872e-44
5.3139900580455e-45
2.7018422360757e-46
1.1751337876223e-47
4.3153029375765e-49
1.3160221648989e-50
3.2623728660828e-52
6.3858637714781e-54
9.4673552538143e-56
9.9586860332922e-58
6.6030060405673e-60
2.06936550692e-62
0
0
0
0
0
0
0
0
0
0
0
0
0
0
0
0
0
0
0
0
0
0
0
0
0
0
0
0
0
0
0
0
0
0
0
0
0
0
0
0
0
0
0
0
0
0
0
0
0
0
0
0
-1.2018534320578e-22
-9.9397521186125e-22
-3.6051565557867e-21
-6.2964731694396e-21
2.3290883913027e-21
4.9037675572538e-20
1.6460936821029e-19
3.4927718616582e-19
5.4740655729527e-19
6.7593694841009e-19
6.9029575926146e-19
6.1505384082947e-19
5.0793463267372e-19
4.0712530230748e-19
3.177698013351e-19
2.3348184306615e-19
1.5531105376839e-19
9.1175700401945e-20
4.6670433235379e-20
2.0742910775065e-20
7.9992655566867e-21
2.6773063075621e-21
7.7768534184826e-22
1.9585940228566e-22
4.2668022504582e-23
8.0077576098189e-24
1.2866659030445e-24
1.7541303146061e-25
2.0034751936088e-26
1.8829581889145e-27
1.4190689499184e-28
8.2488989535981e-30
3.4729108581864e-31
9.4255969464106e-33
1.2380596754962e-34
1.3116335015593e-42
7.9778893230867e-44
4.1908480744824e-45
1.8813095421158e-46
7.1235810841649e-48
2.2380613153576e-49
5.7107608782303e-51
1.1496934117165e-52
1.7517105157756e-54
1.8923156801472e-56
1.2876379120483e-58
4.1387310138399e-61
0
0
0
0
0
0
0
0
0
0
0
0
0
0
0
0
0
0
0
0
0
0
0
0
0
0
0
0
0
0
0
0
0
0
0
0
0
0
0
0
0
0
0
0
0
0
0
0
0
0
0
0
-5.3315172175845e-21
-5.5185072817914e-20
-2.726261796057e-19
-8.5239453485418e-19
-1.8921245213336e-18
-3.1801705392865e-18
-4.2020631549021e-18
-4.4748211669138e-18
-3.8792709339046e-18
-2.5384617545514e-18
-5.934485951238e-19
1.624960805671e-18
3.461485580437e-18
4.2947885399368e-18
4.0041415510511e-18
3.0034759608382e-18
1.871206362264e-18
9.8882641602874e-19
4.5094827036036e-19
1.8024643874855e-19
6.3979391316581e-20
2.0344275348644e-20
5.8078958945861e-21
1.4812234665865e-21
3.3401734323657e-22
6.5750682064052e-23
1.1149418348701e-23
1.6068675608195e-24
1.9390155545702e-25
1.922458011148e-26
1.5256170794974e-27
9.3211627649355e-29
4.1179826897193e-30
1.171033429578e-31
1.6094774605581e-33
9.1690594619289e-42
5.7760202714558e-43
3.1387601622084e-44
1.4559697203405e-45
5.6908463002928e-47
1.8438047314214e-48
4.8473541937786e-50
1.0045868272338e-51
1.5743849501315e-53
1.7480469997218e-55
1.2216518256596e-57
4.0300893247266e-60
0
0
0
0
0
0
0
0
0
0
0
0
0
0
0
0
0
0
0
0
0
0
0
0
0
0
0
0
0
0
0
0
0
0
0
0
0
0
0
0
0
0
0
0
0
0
0
0
0
0
0
0
1.7699672320388e-22
-2.540697076226e-20
-2.6023323959009e-19
-1.2423205392891e-18
-3.9564143532788e-18
-9.318016377317e-18
-1.6435929636861e-17
-2.2211075824714e-17
-2.590894687007e-17
-2.3550948496472e-17
-1.0395279096135e-17
4.9387275126983e-18
1.0177442028887e-17
1.1032794570475e-17
1.1790391574908e-17
1.0048329093381e-17
5.9745589851647e-18
2.6421075112224e-18
1.0498028795194e-18
4.3046510712781e-19
1.7259854330058e-19
6.1119959315576e-20
1.8689860694896e-20
5.025340453038e-21
1.1971141283292e-21
2.5002413926719e-22
4.5054940646285e-23
6.8966619176799e-24
8.8242632187727e-25
9.2570504060021e-26
7.7555251787608e-27
4.9916862773138e-28
2.3186136738709e-29
6.9201419733569e-31
9.9663794216705e-33
4.1082831683566e-41
2.6843600003509e-42
1.5110588268088e-43
7.2521409703073e-45
2.9295142724755e-46
9.7990613565095e-48
2.6570547154456e-49
5.6743116047639e-51
9.155841988802e-53
1.0458237937755e-54
7.5134340827546e-57
2.5458369148883e-59
0
0
0
0
0
0
0
0
0
0
0
0
0
0
0
0
0
0
0
0
0
0
0
0
0
0
0
0
0
0
0
0
0
0
0
0
0
0
0
0
0
0
0
0
0
0
0
0
0
0
0
0
0
1.0248536834908e-21
-5.710894528608e-20
-5.8657232628625e-19
-2.7121825553267e-18
-8.5495439282511e-18
-1.9779395567941e-17
-3.2137507414786e-17
-3.34241593889e-17
-2.1799011403755e-17
5.540796226629e-18
4.0103043267783e-17
2.6020852139652e-17
-9.7144514654701e-17
2.0816681711722e-17
-6.4076348393893e-17
-1.2148933835011e-17
-2.9583939135876e-18
1.0289550045761e-18
4.9934650730705e-19
2.4249735935152e-19
1.0059777214949e-19
3.4352502252245e-20
1.0039776457049e-20
2.5791507782379e-21
5.7961644970145e-22
1.1209114494608e-22
1.8353817428425e-23
2.5033238625708e-24
2.7900238392905e-25
2.475795890392e-26
1.683268559209e-27
8.2402575270008e-29
2.5866438706021e-30
3.9107205757624e-32
1.3244924698788e-40
8.9916836369999e-42
5.2512239662454e-43
2.6113032036883e-44
1.0916212251347e-45
3.7744675146707e-47
1.0568393599409e-48
2.3282727829304e-50
3.872068475828e-52
4.5548885635571e-54
3.3673385354857e-56
1.172877568719e-58
0
0
0
0
0
0
0
0
0
0
0
0
0
0
0
0
0
0
0
0
0
0
0
0
0
0
0
0
0
0
0
0
0
0
0
0
0
0
0
0
0
0
0
0
0
0
0
0
0
0
0
0
0
1.7338749426911e-32
3.1255614091878e-21
-7.5855487274114e-20
-8.1114518625665e-19
-3.6504216794802e-18
-1.0978317335547e-17
-2.3632979595293e-17
-3.3496552454424e-17
-2.1425651692235e-17
-1.5181097262021e-17
-2.4286128663675e-17
0.2463950366787
0.73198412358365
0.96296219271977
0.96274545861034
0.73832303057066
0.29048409324005
3.6334277477718e-19
2.8013359198007e-19
1.841227708028e-19
9.5916956916588e-20
3.8788693583752e-20
1.2891313491274e-20
3.6785548504424e-21
9.065159470016e-22
1.9068756606915e-22
3.3741484280009e-23
4.9432193207346e-24
5.8861644152498e-25
5.5557193601038e-26
4.0037077785264e-27
2.0717950628319e-28
6.85787763555e-30
1.091477580887e-31
1.4021092721885e-35
2.9924824022658e-36
5.7557844664221e-37
9.9659499841133e-38
1.5508630587491e-38
2.1644008823496e-39
2.7016739339135e-40
3.0061392572379e-41
2.9696914834457e-42
2.5919939993784e-43
1.9872695975237e-44
1.3290939898165e-45
7.6891300750957e-47
3.8085333767388e-48
1.5946184534553e-49
5.5532311592782e-51
1.5748578763576e-52
3.5338385288684e-54
6.0192618571881e-56
7.2911072673059e-58
5.5786224411942e-60
2.0206401189128e-62
0
0
0
0
0
0
0
0
0
0
0
0
0
0
0
0
0
0
0
0
0
0
0
0
0
0
0
0
0
0
0
0
0
0
0
0
0
0
0
0
0
0
0
0
1.1934864319363e-31
6.4884345234832e-21
-5.6960164955177e-20
-7.2007268507557e-19
-3.2332252434144e-18
-8.9261859411555e-18
-1.7999840756998e-17
-2.498996207434e-17
-1.9123039435453e-17
-2.0816681711722e-17
0.43409891283099
0.99820440352743
0.99999999999959
0.99999999999914
0.99999999999895
0.99999999999905
0.99926976155199
0.49416750357842
5.6754692103075e-20
4.6725064020402e-20
2.5747163188029e-20
1.0692311336781e-20
3.5793052578787e-21
9.969179428612e-22
2.3258025823835e-22
4.5131188626387e-23
7.1782717921729e-24
9.2019862611968e-25
9.289862067716e-26
7.1276304148989e-27
3.9137420674924e-28
1.3707647930778e-29
2.3087325543401e-31
2.1716946607392e-34
4.9337527878061e-35
1.009582416342e-35
1.8595205191686e-36
3.0792659715851e-37
4.5766952246811e-38
6.0919495544637e-39
7.2419325150849e-40
7.6625098667876e-41
7.1866774785926e-42
5.9456617621478e-43
4.313707574611e-44
2.7254865647478e-45
1.4870341134284e-46
6.9345661141639e-48
2.7290350097864e-49
8.9183263385285e-51
2.3696983805034e-52
4.974966357084e-54
7.9180951475535e-56
8.9521708537327e-58
6.3876301488718e-60
2.1563136374628e-62
0
0
0
0
0
0
0
0
0
0
0
0
0
0
0
0
0
0
0
0
0
0
0
0
0
0
0
0
0
0
0
0
0
0
0
0
0
0
0
0
0
0
0
0
3.934994503853e-31
1.003478340398e-20
-1.4046946896764e-22
-3.0919709720391e-19
-1.6516529985702e-18
-4.3675786586655e-18
-1.2926047334405e-17
-3.5090929586195e-17
-6.8902141383932e-16
0.25667764845546
0.99946731223977
0.99999999999976
0.9999999999993
0.99999999999868
0.99999999999823
0.99999999999828
0.99999999999896
0.99865669966747
0.30159908562781
6.9148231055072e-21
5.1904740771285e-21
2.3311724894916e-21
7.7273019110418e-22
2.0661875914712e-22
4.4977662768623e-23
7.8864936367383e-24
1.0997962343998e-24
1.1966197646692e-25
9.8330965960924e-27
5.7579106775374e-28
2.1435710796195e-29
3.8604549828339e-31
1.4780997505959e-33
3.55643156536e-34
7.6936051211176e-35
1.4958911776884e-35
2.6118029284315e-36
4.089143642522e-37
5.7294857655951e-38
7.1659617481839e-39
7.9747286218573e-40
7.8657165735798e-41
6.8436351624148e-42
5.2226525316053e-43
3.4719786997503e-44
1.9940777098615e-45
9.7943419202666e-47
4.0624731974959e-48
1.4002825959959e-49
3.9275876107899e-51
8.7113447810336e-53
1.4660246504728e-54
1.7540184776739e-56
1.3255523431952e-58
4.7438900024183e-61
0
0
0
0
0
0
0
0
0
0
0
0
0
0
0
0
0
0
0
0
0
0
0
0
0
0
0
0
0
0
0
0
0
0
0
0
0
0
0
0
0
0
0
0
0
8.2983227049844e-31
1.2000312770355e-20
6.9541078037041e-20
2.3237372542141e-19
3.2830218230722e-19
4.5944804382734e-19
-7.1646683634209e-18
-3.389769796992e-17
-3.4694469519536e-17
0.73957322529153
0.99999999999994
0.99999999999972
0.99999999999925
0.99999999999861
0.99999999999811
0.99999999999811
0.99999999999867
0.99999999999954
0.77078280580648
1.0604649180796e-21
8.9729721645162e-22
4.0560553257373e-22
1.327755668086e-22
3.3565328340634e-23
6.6347791208875e-24
1.0213171866309e-24
1.2101722404928e-25
1.0736463664777e-26
6.7478841715158e-28
2.6865717388604e-29
5.2749978133753e-31
6.079770007264e-33
1.5480114428203e-33
3.5352381622233e-34
7.2413726281338e-35
1.3295998939732e-35
2.1857696241252e-36
3.2114312688177e-37
4.2068977593716e-38
4.8985057474904e-39
5.0507264348458e-40
4.5900810837718e-41
3.6561727387016e-42
2.5352744394467e-43
1.5178589114275e-44
7.7668760721177e-46
3.3541880367265e-47
1.2030341033644e-48
3.5089792689335e-50
8.0880045691716e-52
1.4134671849829e-53
1.754840327399e-55
1.3751041117706e-57
5.0996817525996e-60
0
0
0
0
0
0
0
0
0
0
0
0
0
0
0
0
0
0
0
0
0
0
0
0
0
0
0
0
0
0
0
0
0
0
0
0
0
0
0
0
0
0
0
0
0
0
1.2604335341952e-30
1.1150715570497e-20
1.1846636863199e-19
6.506443969797e-19
1.8885976922144e-18
3.8254619907441e-18
1.3681251111778e-18
-4.5298125291403e-17
8.3266726846887e-17
0.95667859286086
0.99999999999994
0.99999999999976
0.99999999999938
0.99999999999887
0.99999999999849
0.99999999999848
0.99999999999889
0.99999999999955
0.95919991557501
1.4969408502929e-22
1.2914541761474e-22
5.9385037019552e-23
1.8528424490818e-23
4.2662621733051e-24
7.4052976525466e-25
9.6985659645116e-26
9.3925512323254e-27
6.3893644018648e-28
2.7431507470451e-29
6.0714066513349e-31
1.7242756119482e-32
4.650425357488e-33
1.1217303133631e-33
2.4208517315451e-34
4.6731788776913e-35
8.0615994369395e-36
1.2408418530066e-36
1.7003336660162e-37
2.0682723322159e-38
2.2250493311561e-39
2.1074613721824e-40
1.7476891210475e-41
1.2604643548936e-42
7.8413945983125e-44
4.1654773746046e-45
1.8658141827066e-46
6.9346985412797e-48
2.0941121695205e-49
4.9925442703871e-51
9.015932684294e-53
1.1555506808604e-54
9.3393981144364e-57
3.5697772268197e-59
0
0
0
0
0
0
0
0
0
0
0
0
0
0
0
0
0
0
0
0
0
0
0
0
0
0
0
0
0
0
0
0
0
0
0
0
0
0
0
0
0
0
0
0
0
0
0
1.4716472595724e-30
7.7747111329088e-21
1.2646682379184e-19
7.8097599942505e-19
2.503152788906e-18
5.0460443466403e-18
4.7764465456299e-18
-3.1318256148948e-17
9.3223459350533e-05
0.95331677851994
0.99999999999996
0.99999999999984
0.99999999999959
0.99999999999927
0.99999999999903
0.99999999999904
0.99999999999931
0.99999999999974
0.92540255409058
1.861961854943e-23
1.6616179846684e-23
7.2653892439521e-24
2.0628062851864e-24
4.1679374636625e-25
6.1664419917081e-26
6.6204290576333e-27
4.9280351955499e-28
2.3078254145558e-29
6.0631452924494e-31
3.6207667110983e-32
1.0364503669232e-32
2.6446397793818e-33
6.0205280450081e-34
1.2229145402758e-34
2.2150430558195e-35
3.5729012157616e-36
5.1219546640767e-37
6.507750068239e-38
7.3024202978305e-39
7.2047665386854e-40
6.2161809799581e-41
4.6589093993808e-42
3.0085591771396e-43
1.6572015420048e-44
7.6889850068195e-46
2.9571207430935e-47
9.2307011180762e-49
2.2724859804572e-50
4.2333598228867e-52
5.5913566722833e-54
4.6525550624193e-56
1.8295108287451e-58
0
0
0
0
0
0
0
0
0
0
0
0
0
0
0
0
0
0
0
0
0
0
0
0
0
0
0
0
0
0
0
0
0
0
0
0
0
0
0
0
0
0
0
0
0
0
0
0
1.3762075575923e-30
3.5037903748472e-21
9.8998691418865e-20
6.4725197861115e-19
2.2273400924319e-18
4.6980610664042e-18
3.9471920755777e-18
-2.3485098886158e-17
5.2041704279304e-17
0.75037975989781
0.99999999999998
0.99999999999991
0.99999999999977
0.9999999999996
0.99999999999949
0.99999999999952
0.99999999999968
0.99999999999993
0.71784415491407
2.1670707297275e-24
1.8192992369129e-24
7.1962526717309e-25
1.7897422297952e-25
3.0897261745547e-26
3.7587907911458e-27
3.1059838311192e-28
1.6125545348779e-29
5.396031108296e-31
5.8827808629013e-32
1.7920789929058e-32
4.8479383171289e-33
1.1662940205384e-33
2.4965737622729e-34
4.7538842765573e-35
8.043974438114e-36
1.2073484468529e-36
1.603317463319e-37
1.8774018786882e-38
1.9300785675176e-39
1.7328010187726e-40
1.3496417683044e-41
9.0462431626453e-43
5.1659232938095e-44
2.4820359494543e-45
9.8739139579427e-47
3.1846246129074e-48
8.0919779569801e-50
1.5541765195448e-51
2.1141652748515e-53
1.810098567621e-55
7.3182589463441e-58
0
0
0
0
0
0
0
0
0
0
0
0
0
0
0
0
0
0
0
0
0
0
0
0
0
0
0
0
0
0
0
0
0
0
0
0
0
0
0
0
0
0
0
0
0
0
0
0
0
1.0602589287233e-30
1.1174113023444e-22
5.8526738323927e-20
4.0547711742447e-19
1.5388670081116e-18
3.5624476654456e-18
2.7078580435589e-18
-1.3924105620007e-17
-3.9105018399403e-17
0.28301225350087
0.99839604202924
0.99999999999996
0.99999999999989
0.99999999999982
0.99999999999978
0.99999999999981
0.99999999999991
0.9997846797546
0.2922912142315
2.1929023576688e-25
1.6531584465766e-25
5.6828888961072e-26
1.2014795905535e-26
1.7083254718194e-27
1.597422540761e-28
9.4155747999629e-30
4.3616854212532e-31
7.6278398861279e-32
2.4801579444308e-32
7.1308107771228e-33
1.8167388915623e-33
4.1057607210674e-34
8.231831689729e-35
1.4631478268424e-35
2.301980551251e-36
3.1982468190148e-37
3.9112744507262e-38
4.1928479964724e-39
3.9192988967039e-40
3.1739137120038e-41
2.2089444683677e-42
1.3081368770946e-43
6.5098549960803e-45
2.6791424896469e-46
8.929046499046e-48
2.3417915969826e-49
4.6372063889092e-51
6.496663544402e-53
5.7229880223806e-55
2.3788384663689e-57
0
0
0
0
0
0
0
0
0
0
0
0
0
0
0
0
0
0
0
0
0
0
0
0
0
0
0
0
0
0
0
0
0
0
0
0
0
0
0
0
0
0
0
0
0
0
0
0
0
0
6.8688215712261e-31
-1.5761646044369e-21
2.5297784615257e-20
1.9836439597815e-19
8.8325945542648e-19
2.2379557594864e-18
1.6972480456251e-18
-2.868893029899e-18
-1.2601226321928e-17
-2.0816681711722e-17
0.48709978795327
0.9994999991244
0.99999999999996
0.99999999999994
0.99999999999993
0.99999999999996
0.99981669035169
0.55033392853186
0.0010106332573743
2.0953147729562e-26
1.2904198917814e-26
3.6417497143684e-27
6.477847390017e-28
7.4198768343007e-29
5.7889396836494e-30
4.4334314037951e-31
8.8674516970457e-32
2.8456245620338e-32
8.6441050407671e-33
2.3356684523884e-33
5.5805396163032e-34
1.1796039430624e-34
2.2050181414632e-35
3.6403827345775e-36
5.2967195184224e-37
6.7712054451162e-38
7.5748506472357e-39
7.3774362903708e-40
6.2155644664153e-41
4.4941671235529e-42
2.7613136942558e-43
1.4238846579607e-44
6.0646009282127e-46
2.089256643493e-47
5.657249563695e-49
1.155278748782e-50
1.6673115892454e-52
1.5115113890556e-54
6.4606593203246e-57
0
0
0
0
0
0
0
0
0
0
0
0
0
0
0
0
0
0
0
0
0
0
0
0
0
0
0
0
0
0
0
0
0
0
0
0
0
0
0
0
0
0
0
0
0
0
0
0
0
0
0
3.8002380924492e-31
-1.8174872299427e-21
6.6207464994022e-21
7.6919763579052e-20
4.4143069671403e-19
1.169318563444e-18
8.7307139846429e-19
9.2546580547531e-19
1.5936359382293e-18
1.7883929890134e-18
8.0664641632922e-17
0.2782694878383
0.74848479555266
0.96195616497005
0.95037732832026
0.7475814388254
0.32230599056527
0.0014271064726567
1.0838617736514e-24
4.5759919064278e-25
8.9823689292794e-26
9.104423540422e-27
5.5052291416017e-28
4.0078788437336e-29
2.4948746290325e-30
1.7413463251455e-31
2.9858310931338e-32
8.9231951453365e-33
2.5520400498271e-33
6.4391781092063e-34
1.4342288995687e-34
2.8191175201731e-35
4.8843611096831e-36
7.4442391189779e-37
9.9511696690871e-38
1.1621536325834e-38
1.1797815481962e-39
1.034528261246e-40
7.7743647191539e-42
4.9579149661788e-43
2.6500952945337e-44
1.1685484575427e-45
4.1625981117057e-47
1.1641006478748e-48
2.4523536893129e-50
3.6470703606033e-52
3.4035649362955e-54
1.4964179436466e-56
0
0
0
0
0
0
0
0
0
0
0
0
0
0
0
0
0
0
0
0
0
0
0
0
0
0
0
0
0
0
0
0
0
0
0
0
0
0
0
0
0
0
0
0
0
0
0
0
0
0
0
0
1.8172564243501e-31
-1.3480299366793e-21
-4.6177788839231e-22
2.3875346432488e-20
1.9846430671899e-19
5.2062014002567e-19
3.7853130079655e-19
7.4055553127727e-19
1.3220539486462e-18
5.181208331755e-19
-2.2032270558421e-18
-1.0007232277041e-18
-6.9527255345465e-20
-8.5484309917777e-21
0.0035077921303298
2.0300279508871e-21
5.1059906377581e-22
7.9692021412843e-23
9.00935535362e-24
8.451178803453e-25
6.3950439201998e-26
3.8362028900917e-27
2.7101678674983e-28
1.5095170482938e-29
6.5422951847891e-31
3.7214003589749e-32
8.2846632712067e-33
2.4790893211224e-33
6.5515320560852e-34
1.528868944499e-34
3.1472926198232e-35
5.7063783133686e-36
9.0919786567017e-37
1.2691104570894e-37
1.5457892741894e-38
1.6346020600606e-39
1.4912002078551e-40
1.1644046476336e-41
7.7064071216356e-43
4.2697714809112e-44
1.9492400991324e-45
7.1804705876505e-47
2.0742101252936e-48
4.5085285988889e-50
6.9106760138512e-52
6.640675435701e-54
3.003991441127e-56
0
0
0
0
0
0
0
0
0
0
0
0
0
0
0
0
0
0
0
0
0
0
0
0
0
0
0
0
0
0
0
0
0
0
0
0
0
0
0
0
0
0
0
0
0
0
0
0
0
0
0
0
0
7.582982714324e-32
-7.7479135052664e-22
-1.7135234958902e-21
6.0500290521018e-21
8.1517865057354e-20
2.0570975657854e-19
1.6054236828642e-19
2.6923394276515e-19
3.0567240522104e-19
-2.2300429999874e-20
-5.7412485143601e-19
-8.7880401687042e-20
-7.2169155512968e-21
1.2357698211343e-20
6.9228627949881e-21
1.8985338073394e-21
3.2006087399747e-22
3.6503219286577e-23
3.1326392758081e-24
2.1692276143549e-25
1.3663480217205e-26
9.9348298935871e-28
5.5158076969159e-29
2.172815674223e-30
6.5658901246187e-32
7.5382556532289e-33
2.2987620675228e-33
6.2331727779969e-34
1.5006296730837e-34
3.1980272445827e-35
6.0151029837489e-36
9.9530089261902e-37
1.4434358195643e-37
1.8265920223189e-38
2.0060925966836e-39
1.8996858363851e-40
1.5386841746477e-41
1.0554655172072e-42
6.0556208283818e-44
2.8600653211847e-45
1.0889352330829e-46
3.2480020450993e-48
7.2826462207038e-50
1.1504111048312e-51
1.1382655311444e-53
5.298149015619e-56
0
0
0
0
0
0
0
0
0
0
0
0
0
0
0
0
0
0
0
0
0
0
0
0
0
0
0
0
0
0
0
0
0
0
0
0
0
0
0
0
0
0
0
0
0
0
0
0
0
0
0
0
0
0
2.7824140109185e-32
-3.6635753393168e-22
-1.1763149653651e-21
1.3400206458053e-21
3.0554404848301e-20
7.4656925421628e-20
7.2120513179981e-20
1.0382932024458e-19
9.2638243679774e-20
8.9615625818519e-21
-9.7125940310158e-21
1.4313838259129e-20
2.0383000990528e-20
1.0858368931839e-20
3.2505833440072e-21
6.0638105542628e-22
7.4942783813093e-23
6.6356568865511e-24
4.605156615704e-25
3.0964719530583e-26
2.3608865054084e-27
1.3507433642444e-28
5.2906901602556e-30
1.2795929588689e-31
7.259825882668e-33
2.1951946047541e-33
5.9460171396887e-34
1.4430490924129e-34
3.1227804568656e-35
5.9974958389555e-36
1.0174950278373e-36
1.5174055855675e-37
1.9785637736719e-38
2.2419962104034e-39
2.1921805654554e-40
1.8340415118592e-41
1.2995271828688e-42
7.7000491471556e-44
3.7543762684818e-45
1.4749159687041e-46
4.5365071249671e-48
1.048206381838e-49
1.7051642285597e-51
1.7363189433915e-53
8.312787853371e-56
0
0
0
0
0
0
0
0
0
0
0
0
0
0
0
0
0
0
0
0
0
0
0
0
0
0
0
0
0
0
0
0
0
0
0
0
0
0
0
0
0
0
0
0
0
0
0
0
0
0
0
0
0
0
0
9.0340674149881e-33
-1.4659015954685e-22
-5.5192242846769e-22
3.0862612101098e-22
1.0333202109119e-20
2.5024842225181e-20
3.1017711676149e-20
4.6821618157584e-20
4.8760549557993e-20
3.3405381981993e-20
2.597330991156e-20
1.9813806416571e-20
1.0314759350725e-20
3.3850563992439e-21
7.0760978821336e-22
9.7324125384808e-23
9.3342189210398e-24
6.8415046901458e-25
4.9701883447906e-26
4.0136561925382e-27
2.4045322452212e-28
9.6636760037044e-30
2.189692978578e-31
7.3350458102722e-33
2.1976615641268e-33
5.8857872389276e-34
1.4192240088537e-34
3.0685356581719e-35
5.9211736244533e-36
1.0144936873225e-36
1.5347466068269e-37
2.0376030575612e-38
2.3579828308686e-39
2.3601053674395e-40
2.0247551870295e-41
1.4729868565216e-42
8.9684647555078e-44
4.4955993787831e-45
1.8161043107056e-46
5.7442063800739e-48
1.3647061693618e-49
2.2821862763226e-51
2.3883453303981e-53
1.1748614201604e-55
0
0
0
0
0
0
0
0
0
0
0
0
0
0
0
0
0
0
0
0
0
0
0
0
0
0
0
0
0
0
0
0
0
0
0
0
0
0
0
0
0
0
0
0
0
0
0
0
0
0
0
0
0
0
0
0
2.6089143822311e-33
-5.0439683413703e-23
-2.0489796239998e-22
8.7114923733493e-23
3.109351494186e-21
7.5793230438119e-21
1.133489358677e-20
1.8078621689413e-20
2.0550416987283e-20
1.7208053594352e-20
1.2155741825318e-20
6.5417203722152e-21
2.3845465985529e-21
5.6583102485399e-22
8.8166724594863e-23
9.4186683299173e-24
7.5473651543659e-25
5.9915217838629e-26
5.1625605677428e-27
3.2719736037091e-28
1.3720486517155e-29
3.0884960535016e-31
7.1801133009877e-33
2.1803051370845e-33
5.8518871440187e-34
1.4106848965999e-34
3.0477914979557e-35
5.882736398872e-36
1.010268113117e-36
1.5360658735565e-37
2.0557425606977e-38
2.4052466862226e-39
2.4408203401781e-40
2.1283737562406e-41
1.5771534015527e-42
9.798459185094e-44
5.0188073491181e-45
2.0739431670818e-46
6.7155880674031e-48
1.6343918761667e-49
2.8010959006504e-51
3.0052197662956e-53
1.5158150612878e-55
0
0
0
0
0
0
0
0
0
0
0
0
0
0
0
0
0
0
0
0
0
0
0
0
0
0
0
0
0
0
0
0
0
0
0
0
0
0
0
0
0
0
0
0
0
0
0
0
0
0
0
0
0
0
0
0
0
6.7296095331002e-34
-1.5078022611062e-23
-6.3313922270808e-23
2.7154596974e-23
8.2227732692707e-22
2.0148432602486e-21
3.347431132577e-21
5.3057633826914e-21
5.9486077406715e-21
4.8051449486073e-21
2.8724177669929e-21
1.1923838633219e-21
3.2664797495454e-22
5.8638926833253e-23
7.1248140065202e-24
6.4046186724561e-25
5.6201946100179e-26
5.200918717579e-27
3.5151218969311e-28
1.5556376835764e-29
3.5780065959637e-31
6.3419720759651e-33
1.9998294156722e-33
5.4910741533441e-34
1.3466117267036e-34
2.9465035506727e-35
5.7410928920658e-36
9.9322220858128e-37
1.5198147562514e-37
2.0469433226748e-38
2.4119234861926e-39
2.4680334350814e-40
2.1735193748578e-41
1.6294643524506e-42
1.0259895602744e-43
5.3348331393422e-45
2.2413677761129e-46
7.3891067271084e-48
1.8331250281998e-49
3.2060767330043e-51
3.513577775761e-53
1.8115138327132e-55
0
0
0
0
0
0
0
0
0
0
0
0
0
0
0
0
0
0
0
0
0
0
0
0
0
0
0
0
0
0
0
0
0
0
0
0
0
0
0
0
0
0
0
0
0
0
0
0
0
0
0
0
0
0
0
0
0
0
1.5559122414696e-34
-3.9427111957015e-24
-1.6679359861868e-23
7.6892389704724e-24
1.8925677538778e-22
4.6004371639895e-22
7.9139271515639e-22
1.182101716075e-21
1.2267181403929e-21
8.7939059243387e-22
4.3134791069314e-22
1.3959320588346e-22
2.9426391348059e-23
4.1467687866293e-24
4.2732624472833e-25
4.1948679513843e-26
4.1963451887874e-27
3.0459263410241e-28
1.4355326374789e-29
3.4331269439909e-31
4.8715346613097e-33
1.6247292611807e-33
4.6390075971649e-34
1.1762839793537e-34
2.6472295306215e-35
5.2800563271676e-36
9.3124347732079e-37
1.4477542769472e-37
1.9757666203834e-38
2.3544442161546e-39
2.4336588427674e-40
2.1638779739459e-41
1.6379236191408e-42
1.0417881231618e-43
5.4763495988345e-45
2.3284114048596e-46
7.7772375433505e-48
1.9573770358711e-49
3.4777631073674e-51
3.8770398724881e-53
2.0354410576762e-55
0
0
0
0
0
0
0
0
0
0
0
0
0
0
0
0
0
0
0
0
0
0
0
0
0
0
0
0
0
0
0
0
0
0
0
0
0
0
0
0
0
0
0
0
0
0
0
0
0
0
0
0
0
0
0
0
0
0
0
3.2335273242106e-35
-9.0603451815724e-25
-3.7957544338445e-24
1.8021957706491e-24
3.7617511832651e-23
8.911025708275e-23
1.503041711672e-22
2.0336437391239e-22
1.8655438817336e-22
1.1310949015242e-22
4.4552269705564e-23
1.1287660575371e-23
1.8843247330322e-24
2.2719019017315e-25
2.5260938697918e-26
2.7507208257123e-27
2.1592142658123e-28
1.0923427043088e-29
2.7516135770843e-31
3.2054651561089e-33
1.1471458126983e-33
3.4442463896612e-34
9.1362936634772e-35
2.1404628594612e-35
4.4237777395867e-36
8.0492184612302e-37
1.2857295640171e-37
1.7961315958185e-38
2.1837591210683e-39
2.296490248137e-40
2.0726598273159e-41
1.5896994108465e-42
1.0232738928163e-43
5.439711329186e-45
2.3382863399614e-46
7.8974117145658e-48
2.0109492775245e-49
3.618233428501e-51
4.0894011529281e-53
2.1786008252962e-55
0
0
0
0
0
0
0
0
0
0
0
0
0
0
0
0
0
0
0
0
0
0
0
0
0
0
0
0
0
0
0
0
0
0
0
0
0
0
0
0
0
0
0
0
0
0
0
0
0
0
0
0
0
0
0
0
0
0
0
0
6.0541089474607e-36
-1.8353698510787e-25
-7.5196934572718e-25
3.3844228729743e-25
6.4127271456916e-24
1.4547681540162e-23
2.3060007017669e-23
2.7376756524153e-23
2.1376097500685e-23
1.0608243387523e-23
3.3220414401676e-24
6.7312879340482e-25
9.6930154341408e-26
1.2366381344847e-26
1.4773488313882e-27
1.2633394369385e-28
6.9129546793395e-30
1.8538949732408e-31
1.7950710747198e-33
6.9898193164059e-34
2.2248146962144e-34
6.2258080963815e-35
1.5317026131871e-35
3.3100010283507e-36
6.2715217177541e-37
1.0390713013131e-37
1.4999462555815e-38
1.8777183718941e-39
2.026383212266e-40
1.8710093706461e-41
1.4640326514433e-42
9.5910900624484e-44
5.1786467989995e-45
2.257424209903e-46
7.7230788164084e-48
1.990842424727e-49
3.6260479595613e-51
4.1500007435255e-53
2.2394516784958e-55
0
0
0
0
0
0
0
0
0
0
0
0
0
0
0
0
0
0
0
0
0
0
0
0
0
0
0
0
0
0
0
0
0
0
0
0
0
0
0
0
0
0
0
0
0
0
0
0
0
0
0
0
0
0
0
0
0
0
0
0
0
1.0229960580191e-36
-3.2833218423815e-26
-1.3026248630923e-25
4.9560737133524e-26
9.3098976832958e-25
1.993276621771e-24
2.8707285390194e-24
2.9088399723044e-24
1.8753128224038e-24
7.4863472125987e-25
1.8924276729485e-25
3.3246671170019e-26
4.9332802654025e-27
6.525313542707e-28
6.1291076605929e-29
3.6564402792131e-30
1.0540570462121e-31
8.5127704252294e-34
3.6665516170665e-34
1.2456210476094e-34
3.7017806017931e-35
9.62805375563e-36
2.1904115902979e-36
4.352191216167e-37
7.5337320337354e-38
1.132216078919e-38
1.4705724039014e-39
1.641135928262e-40
1.5620166991312e-41
1.2561205998409e-42
8.432985080669e-44
4.6539215993549e-45
2.0686089900153e-46
7.2017365533469e-48
1.8861162552633e-49
3.4863437837473e-51
4.0467587976062e-53
2.2133896356866e-55
0
0
0
0
0
0
0
0
0
0
0
0
0
0
0
0
0
0
0
0
0
0
0
0
0
0
0
0
0
0
0
0
0
0
0
0
0
0
0
0
0
0
0
0
0
0
0
0
0
0
0
0
0
0
0
0
0
0
0
0
0
0
1.5621137652082e-37
-5.190697738878e-27
-1.9775601507278e-26
5.2987237023502e-27
1.1415304157741e-25
2.2821745404802e-25
2.9079872061342e-25
2.4580462118434e-25
1.2855805789646e-25
4.1712218987007e-26
9.1360278967788e-27
1.5996431572965e-27
2.3688929030295e-28
2.4676941534125e-29
1.6191104575395e-30
5.0647181137709e-32
3.393097931291e-34
1.653381408364e-34
6.0344252710588e-35
1.9161276435195e-35
5.2993525442547e-36
1.2764569210839e-36
2.6747247144825e-37
4.8651232424698e-38
7.6566993197418e-39
1.0380372409182e-39
1.2053798783764e-40
1.1901447556789e-41
9.8992316366277e-43
6.8544003380348e-44
3.8907552614523e-45
1.774140004983e-46
6.3210672254836e-48
1.6905567970275e-49
3.1853539935225e-51
3.7635253290143e-53
2.0923743090888e-55
0
0
0
0
0
0
0
0
0
0
0
0
0
0
0
0
0
0
0
0
0
0
0
0
0
0
0
0
0
0
0
0
0
0
0
0
0
0
0
0
0
0
0
0
0
0
0
0
0
0
0
0
0
0
0
0
0
0
0
0
0
0
0
2.1574605356821e-38
-7.250001548617e-28
-2.6324727996111e-27
3.1614424484171e-28
1.1692915483155e-26
2.1698369127866e-26
2.4003068129412e-26
1.6708853850776e-26
7.1398689842289e-27
1.9919487475733e-27
4.1827506695825e-28
7.0326513498523e-29
8.2212232031603e-30
5.9936999876595e-31
2.0546075050547e-32
1.1208489948021e-34
6.3967485064848e-35
2.5255526235773e-35
8.621665191553e-36
2.5498285673954e-36
6.5370102890895e-37
1.4518672579214e-37
2.7885733033288e-38
4.6181698921806e-39
6.5672325301031e-40
7.9746556392089e-41
8.2099724588363e-42
7.1003189453431e-43
5.097977104457e-44
2.9927135285054e-45
1.4076903918924e-46
5.160910573554e-48
1.4170155206742e-49
2.735241341019e-51
3.3045327026965e-53
1.8750880179665e-55
0
0
0
0
0
0
0
0
0
0
0
0
0
0
0
0
0
0
0
0
0
0
0
0
0
0
0
0
0
0
0
0
0
0
0
0
0
0
0
0
0
0
0
0
0
0
0
0
0
0
0
0
0
0
0
0
0
0
0
0
0
0
0
0
2.6962482532669e-39
-8.9351527845267e-29
-3.0697958051239e-28
-1.5799342992898e-29
9.8492268771117e-28
1.6968926733239e-27
1.6145071770581e-27
9.3048811883551e-28
3.3825770503354e-28
8.6907151871846e-29
1.6897882478843e-29
2.2502976460012e-30
1.8459790312644e-31
7.011262070791e-33
2.9812186180337e-35
2.1164494546629e-35
9.1096905844109e-36
3.3659428438879e-36
1.0708609574242e-36
2.9377570639259e-37
6.9499064789196e-38
1.416056211817e-38
2.4787101721097e-39
3.7131845209268e-40
4.7352562887781e-41
5.1048562386368e-42
4.61039110589e-43
3.447739947423e-44
2.1027003346237e-45
1.025008346365e-46
3.8852496086756e-48
1.100378913428e-49
2.1862213063531e-51
2.7130213827644e-53
1.5780450056112e-55
0
0
0
0
0
0
0
0
0
0
0
0
0
0
0
0
0
0
0
0
0
0
0
0
0
0
0
0
0
0
0
0
0
0
0
0
0
0
0
0
0
0
0
0
0
0
0
0
0
0
0