/*--------------------------------*- C++ -*----------------------------------*\
  =========                 |
  \\      /  F ield         | OpenFOAM: The Open Source CFD Toolbox
   \\    /   O peration     | Website:  https://openfoam.org
    \\  /    A nd           | Version:  7
     \\/     M anipulation  |
\*---------------------------------------------------------------------------*/
FoamFile
{
    version     2.0;
    format      ascii;
    class       volScalarField;
    location    "0.2";
    object      alpha.water;
}
// * * * * * * * * * * * * * * * * * * * * * * * * * * * * * * * * * * * * * //

dimensions      [0 0 0 0 0 0 0];

internalField   nonuniform List<scalar> 
6000
(
0
0
0
0
0
0
0
0
0
0
0
0
0
0
0
0
0
0
0
0
0
0
0
0
0
0
0
0
0
0
0
0
0
0
0
0
0
0
0
0
0
0
0
0
0
0
0
0
0
0
0
0
0
0
0
0
0
0
0
0
0
0
0
0
0
0
0
0
0
0
0
0
0
0
0
0
0
0
0
0
0
0
0
0
0
0
0
0
0
0
0
0
0
0
0
0
0
0
0
0
0
0
0
0
0
0
0
0
0
0
0
0
0
0
0
0
0
0
0
0
0
0
0
0
0
0
0
0
0
0
0
0
0
0
0
0
0
0
0
0
0
0
0
0
0
0
0
0
0
0
0
0
0
0
0
0
0
0
0
0
0
0
0
0
0
0
0
0
0
0
0
0
0
0
0
0
0
0
0
0
0
0
0
0
0
0
0
0
0
0
0
0
0
0
0
0
0
0
0
0
0
0
0
0
0
0
0
0
0
0
0
0
0
0
0
0
0
0
0
0
0
0
0
0
0
0
0
0
0
0
0
0
0
0
0
0
0
0
0
0
0
0
0
0
0
0
0
0
0
0
0
0
0
0
0
0
0
0
0
0
0
0
0
0
0
0
0
0
0
0
0
0
0
0
0
0
0
0
0
0
0
0
0
0
0
0
0
0
0
0
0
0
0
0
0
0
0
0
0
0
0
0
0
0
0
0
0
0
0
0
0
0
0
0
0
0
0
2.6787570775322e-34
1.9775056240221e-34
3.3414970002209e-35
-9.3974106251258e-37
-7.7269214112118e-38
8.4851540138106e-39
8.3244636494233e-39
1.5565645766444e-39
1.118016967792e-40
1.8222026591006e-41
3.1910648539906e-42
5.8264648263247e-43
1.0213256052808e-43
3.1956046572909e-44
3.3695211416918e-45
5.6681458707244e-46
1.7923798775705e-46
1.8599220619537e-47
5.2574624338802e-48
5.820785400076e-49
9.2468967001863e-50
1.645917184012e-50
2.9292912165844e-51
5.2466463400385e-52
1.0165998946518e-52
1.9045397479982e-53
2.8310609746546e-54
8.1833579097284e-55
1.3562159641033e-55
2.740056051711e-56
3.9417298981365e-57
9.4673097350328e-58
1.7065597000516e-58
1.5954273209948e-59
3.3463812795058e-60
5.1074639688908e-61
1.2761037898383e-61
1.5277617384831e-62
2.5946418642706e-63
7.0224505779322e-64
8.1865020602903e-65
2.1291829731793e-65
2.5231547916948e-66
4.785004435342e-67
1.1455945538293e-67
1.3487394237868e-68
3.2574362224223e-69
4.114786716097e-70
7.0186286062168e-71
1.8127525762498e-71
2.1908086483998e-72
5.4546539267589e-73
6.7084037978334e-74
1.1374822797584e-74
3.6520958825359e-75
4.7025856828975e-76
8.5572694828866e-77
1.0964676289704e-77
1.8743416979074e-78
4.3912293603943e-79
5.7889525050589e-80
6.8908784338961e-81
1.672499631526e-81
2.9349448785324e-82
7.8242120180099e-83
1.6871339714654e-83
3.0716519205163e-84
5.4237506063579e-85
7.2376520944719e-86
8.8838676800031e-87
1.5104803662594e-87
4.2075187463522e-88
6.7544053309397e-89
8.1614360634334e-90
2.0241839547866e-90
4.3727749877952e-91
7.9519197545555e-92
1.3916102937325e-92
2.4437148874025e-93
2.4367852423253e-94
6.806016379141e-95
1.2052950539516e-95
3.4435865784676e-96
0
0
0
0
0
0
0
0
0
3.2776459131436e-28
0
5.0446744715693e-46
1.8952627294625e-29
-6.3537999304969e-57
-6.3058430894617e-47
0
0
1.9422232675998e-32
8.945299540362e-33
1.3711381146159e-34
3.0703271530749e-35
1.9554770539353e-35
3.4514340048251e-35
7.2393226362597e-36
4.613845818502e-39
8.076140949893e-40
1.4090430969283e-40
2.4814438356007e-41
4.3859528832376e-42
7.731594443098e-43
8.7889694736031e-41
2.4825188220694e-44
4.3455604503499e-45
8.3619149718082e-43
1.3908399830461e-46
7.8765032740016e-44
7.0589944426171e-48
7.6359184871279e-49
3.7897230394549e-47
2.3529356842546e-50
1.1024493232987e-48
1.1252346979813e-48
1.2891664265296e-52
2.2504303072862e-53
1.3994404655644e-51
5.2430714043629e-52
1.8669196229339e-52
2.188517024362e-56
2.9260100406566e-53
9.8270145249983e-55
3.7075350237946e-58
1.4263018803395e-55
1.5058912538481e-59
1.0399133974973e-56
6.8591786135818e-61
2.1243177374627e-62
4.9668484111823e-59
6.590912783265e-64
1.8486020990577e-60
2.0355972939288e-65
2.7871000460016e-65
1.2073843990847e-62
1.0962064608646e-67
4.5352828339575e-64
3.3626725506343e-69
5.8406426052244e-70
2.8377288771768e-66
1.7979839865938e-71
1.0158061827759e-67
5.5138969000187e-73
1.4821933500096e-72
9.9571312031394e-70
6.0292622936953e-74
2.5103828687496e-71
9.1260057916851e-77
1.5827876035903e-77
2.3287698450003e-73
1.4245673249835e-77
8.2141573834785e-80
4.0344982783601e-79
2.497135788845e-81
3.2003225038985e-78
7.634186101958e-78
2.1765076679778e-79
2.7644807095218e-80
5.1985688483443e-80
3.1640815883157e-84
1.3006403420724e-86
2.6002439433394e-83
6.585861550536e-84
6.9584791569156e-89
1.2821909615136e-85
2.947539925772e-85
8.1192778484794e-87
1.0330983724345e-87
1.9755256041584e-87
1.1782388738782e-91
7.2954787968749e-89
1.7094660943977e-90
9.5243548812319e-91
0
0
0
0
0
0
0
1.4882393017773e-06
2.0254714258842e-05
0.00015125344202737
0.00089816831143333
0.0040382765755038
0.0080465730867355
0.0076624418939237
0.0053122643940399
0.0021819582374616
0.00031188054215417
7.7736001781276e-06
7.2420805081776e-09
-1.7258399012397e-10
-2.72261272052e-11
-3.0511423839925e-12
-2.9080568410067e-25
3.673080013645e-15
1.702237871382e-14
1.5453620335952e-12
2.4459808018844e-12
1.6057315739062e-12
3.9882481346229e-13
6.0485487299943e-14
9.8369687634924e-15
1.8173746545536e-15
3.4546967335067e-16
6.4889966630883e-17
1.2083937307681e-17
2.242082384348e-18
4.1485837425637e-19
7.6551377403122e-20
1.4088576600295e-20
2.5865660814594e-21
4.7380109448797e-22
8.6606189463803e-23
1.5799369394475e-23
2.8768715216794e-24
5.2292342356557e-25
9.4893255503603e-26
1.7192979023044e-26
3.1104342701335e-27
5.6192407864332e-28
1.0137968928471e-28
1.8267057860485e-29
3.2874270486856e-30
5.909315360846e-31
1.0610447240073e-31
1.9031197502572e-32
3.409992961634e-33
6.1039865262162e-34
1.091598671169e-34
1.950371596429e-35
3.4816995447883e-36
6.2100991135472e-37
1.1067563778639e-37
1.9708973356605e-38
3.507082339545e-39
6.2360387674158e-40
1.108058894055e-40
1.9675140592825e-41
3.491267090361e-42
6.1910931112279e-43
1.0971828078752e-43
1.9432380738438e-44
3.4396636017273e-45
6.0849372435197e-46
1.0758539261358e-46
1.9011403404465e-47
3.3577240953948e-48
5.9272306159364e-49
1.0457801639039e-49
1.8442349992532e-50
3.2507584783547e-51
5.7273116768359e-52
1.0086012070357e-52
1.775396632528e-53
3.123798786414e-54
5.4939765508468e-55
9.6585251667122e-56
1.6973019719539e-56
2.9815052349339e-57
5.2353284438041e-58
9.1894133959245e-59
1.6123919583089e-59
2.8281067227353e-60
4.9586852883231e-61
8.6913255010762e-62
1.5228503148122e-62
2.6673737705036e-63
4.6702201262882e-64
8.1983463656754e-65
1.3346621949522e-65
3.790428775159e-66
0
0
0
0
0
0
2.1402236061378e-06
4.2440502229003e-05
0.00037190553039718
0.0021285326891176
0.0096314004714798
0.041141848528437
0.15014966780964
0.25122256231765
0.18830297477595
0.065508400394518
0.0075667798251242
0.00018667397412508
1.4407895709141e-05
2.984264267529e-06
5.0217167740411e-07
8.4511283546317e-08
1.4234511970312e-08
2.4081187266923e-09
4.1160329087904e-10
7.4207423067712e-11
1.4208738263385e-11
1.1653829891409e-11
7.6785035619216e-12
2.067394308508e-12
3.5804063349644e-13
6.2422927841628e-14
1.1638276614066e-14
2.2191347399746e-15
4.2099470520586e-16
7.9298791983221e-17
1.4868402978342e-17
2.7779828849452e-18
5.1734809897238e-19
9.6054124587541e-20
1.7783865301715e-20
3.283993840381e-21
6.0495515480404e-22
1.1118818252764e-22
2.0392539460674e-23
3.7326525500045e-24
6.8194332765817e-25
1.2436827244617e-25
2.2643496561153e-26
4.1161222389381e-27
7.4710045817116e-28
1.3540912246039e-28
2.4508949261468e-29
4.4303363543087e-30
7.9985136829673e-31
1.4423344756092e-31
2.5979371217374e-32
4.6743110423593e-33
8.4014047523919e-34
1.5085138674348e-34
2.7059916468836e-35
4.8495223113051e-36
8.683234217355e-37
1.5534165516115e-37
2.7767144508189e-38
4.9593376958927e-39
8.8506858496889e-40
1.5783450153372e-40
2.8126075886325e-41
5.0085083735014e-42
8.912696114317e-43
1.5849666963226e-43
2.8167610702171e-44
5.0027267370604e-45
8.8796971484228e-46
1.5751846612465e-46
2.7926322997818e-47
4.9482508401165e-48
8.7629783492789e-49
1.5510292626632e-49
2.7438625227781e-50
4.8515939642094e-51
8.5741622912621e-52
1.5145698232898e-52
2.6741282818395e-53
4.7192752617214e-54
8.3247869894243e-55
1.467844803703e-55
2.5870249406217e-56
4.5576259396061e-57
8.0259841982985e-58
1.4128085487974e-58
2.4859787838997e-59
4.3726446291831e-60
7.6882420088573e-61
1.3512944975795e-61
2.374044387901e-62
4.1805027899392e-63
6.864303887817e-64
1.9214630263265e-64
0
0
0
0
0
8.4286733551568e-07
2.8139239726692e-05
0.00036615562223329
0.0028641577019984
0.015131654294473
0.070738080432001
0.31443411801849
0.72223300387759
0.85781604132735
0.83228854378626
0.64794808642669
0.2018262418198
0.016567830875719
0.00054512931788437
7.921275674206e-05
1.570082203558e-05
2.7032756180663e-06
4.6519674796793e-07
8.0051153282345e-08
1.3798734734906e-08
2.3953959143519e-09
4.2884069415463e-10
8.3347760396581e-11
3.8998380193934e-11
1.8452292289653e-11
5.3740946548106e-12
1.057625887027e-12
1.9452568438891e-13
3.6740491363511e-14
7.0417611827742e-15
1.3459867252789e-15
2.5572791522296e-16
4.8352239747239e-17
9.1061587022484e-18
1.7088310953797e-18
3.1961396642667e-19
5.9596876232778e-20
1.1081287323571e-20
2.0550034097156e-21
3.8016090972576e-22
7.0165516494677e-23
1.2922397678695e-23
2.3750965141433e-24
4.3570105007882e-25
7.9783103540081e-26
1.4584447083148e-26
2.6617295135816e-27
4.8502911791778e-28
8.8253893450152e-29
1.6035844648043e-29
2.9098406537936e-30
5.2734091004712e-31
9.5451397880968e-32
1.725693808017e-32
3.1164228163575e-33
5.6218521447771e-34
1.0130966320909e-34
1.8238436783096e-35
3.2802390816262e-36
5.8941264670991e-37
1.0581409540423e-37
1.8979771618149e-38
3.4015304029881e-39
6.0912370580604e-40
1.0899225630238e-40
1.9487468565657e-41
3.4817289692588e-42
6.2161837977737e-43
1.1090502438623e-43
1.9773601803684e-44
3.5231880650847e-45
6.2734906837383e-46
1.1163840696767e-46
1.9854372397314e-47
3.52893580863e-48
6.2687799225184e-49
1.112961872451e-49
1.9748841091201e-50
3.5024571361099e-51
6.2083974848851e-52
1.0999350395526e-52
1.9477829307468e-53
3.4475060057095e-54
6.0990927751388e-55
1.0785139764886e-55
1.9062992378798e-56
3.3679481701627e-57
5.9477522681803e-58
1.0499230344722e-58
1.8526057288193e-59
3.267636668168e-60
5.7608865640566e-61
1.0177139641078e-61
1.6845683995818e-62
4.6569427061908e-63
0
0
0
0
0
7.6461143957563e-06
0.0001651620141192
0.0018299470461215
0.013206989163015
0.080198318930873
0.40953849658611
0.84174709586972
0.97229909528621
0.99209405710913
0.99288813760597
0.97768858463246
0.85119372227281
0.30745645471737
0.026158563156519
0.0013088273969614
0.00021962435666567
4.2982394249599e-05
7.5933559956926e-06
1.3400697377964e-06
2.3636306123325e-07
4.173057028026e-08
7.3881762160066e-09
1.3387425860877e-09
2.6546614439567e-10
8.9758164817758e-11
3.4761085674169e-11
9.7321268827064e-12
1.9818054237612e-12
3.7773794557985e-13
7.2626613550777e-14
1.4042868328361e-14
2.7053354348329e-15
5.182589178427e-16
9.8794075390074e-17
1.8752396754305e-17
3.5456823345611e-18
6.6803030493834e-19
1.2544852112919e-19
2.3486271377827e-20
4.3846563219725e-21
8.1641929588707e-22
1.51642690761e-22
2.8101328056673e-23
5.1962418028506e-24
9.5887780619945e-25
1.7660290634204e-25
3.2466686440625e-26
5.958331262857e-27
1.0916803387277e-27
1.9970322565083e-28
3.6477519930943e-29
6.6534306477619e-30
1.2119184138838e-30
2.2046208867535e-31
4.0054456354718e-32
7.2685230377814e-33
1.317469217848e-33
2.3853549509633e-34
4.3142154924825e-35
7.794780610991e-36
1.4069386143487e-36
2.537059301136e-37
4.5707185323232e-38
8.2271632849159e-39
1.4795859513255e-39
2.6586839704479e-40
4.7735452249958e-41
8.5639468687631e-42
1.5352381016263e-42
2.7501483623745e-43
4.9229383900788e-44
8.8062178070224e-45
1.5741990008653e-45
2.8121798368397e-46
5.0205060869567e-47
8.9573639815151e-48
1.5971595854753e-48
2.8461548243471e-49
5.068941986989e-50
9.0225836921308e-51
1.605111775282e-51
2.8539484362921e-52
5.0717625808931e-53
9.0084262967571e-54
1.5992680435092e-54
2.8377936526073e-55
5.0330623861268e-56
8.9223716819654e-57
1.5809902562535e-57
2.8001621924956e-58
4.9573189163308e-59
8.7720954025853e-60
1.554985861097e-60
2.5944909847532e-61
7.090306021796e-62
0
0
0
0
9.5892591351435e-28
3.1500639122298e-05
0.00061217744257324
0.0064106066470426
0.049901596956588
0.33815575693844
0.8408603519342
0.98072173996265
0.99520668955626
0.99846192741168
0.99935612779723
0.99925750716695
0.99180081751438
0.84425179903152
0.25487665954271
0.017978485729234
0.0014828529075224
0.00029819608541986
5.7535845266511e-05
1.0777648093389e-05
2.0191054658791e-06
3.7274303440985e-07
6.8091201343488e-08
1.2494947005937e-08
2.3588114741215e-09
4.9024713510664e-10
1.4338561997964e-10
4.6144035734275e-11
1.1776332302414e-11
2.4079272431355e-12
4.6997077924099e-13
9.1960779007475e-14
1.79972062168e-14
3.5036317919403e-15
6.7808837833856e-16
1.3056497588967e-16
2.5025646766187e-17
4.7767657044986e-18
9.0827413526999e-19
1.7209247893945e-19
3.2499853629029e-20
6.1189256226578e-21
1.1487668309252e-21
2.1509526919785e-22
4.0173840188156e-23
7.4857212620837e-24
1.3917461113377e-24
2.5821139273892e-25
4.7811032085306e-26
8.8361360597623e-27
1.6301171770344e-27
3.0021665270849e-28
5.520072136241e-29
1.0133994510819e-29
1.8576851690044e-30
3.4005300204557e-31
6.2162688250891e-32
1.1348685205486e-32
2.0692656880645e-33
3.7684507780548e-34
6.8549606271134e-35
1.245549714322e-35
2.260729082518e-36
4.0990545408755e-37
7.4247535005553e-38
1.3435633384703e-38
2.4289905229886e-39
4.3873082203992e-40
7.9174900210056e-41
1.4275973459629e-41
2.5719585070594e-42
4.6299131911517e-43
8.3280349661893e-44
1.4968652102749e-44
2.6884535038464e-45
4.8251503000756e-46
8.6539832969457e-47
1.5510514110044e-47
2.7781069789212e-48
4.9726940801272e-49
8.8953204835558e-50
1.5902494975072e-50
2.841249180728e-51
5.0734136860277e-52
9.0540778745114e-53
1.6149043261855e-53
2.8788127855874e-54
5.1291977695747e-55
9.1339797617796e-56
1.6257366570785e-56
2.8921757851054e-57
5.1426683014571e-58
9.1396218873581e-59
1.6267451815057e-59
2.7374533366053e-60
7.4010152035167e-61
0
0
0
0
-1.9055423109882e-52
6.5611202513915e-05
0.0013526837378682
0.015685926043634
0.1562663306799
0.70242071916054
0.96913243809637
0.9952880312485
0.99849514775319
0.99937320504596
0.99960400994746
0.99962995297717
0.99880212152026
0.97777132777481
0.66048408261945
0.11972404348843
0.0062263465295459
0.00082210731690031
0.00017315844535432
3.2887100860305e-05
6.2494367423505e-06
1.1828415976327e-06
2.2366818734814e-07
4.2451088441432e-08
8.1639628506002e-09
1.6733112308569e-09
4.0471503109224e-10
1.3761348118417e-10
4.1471899633584e-11
9.3108811635149e-12
1.881911330979e-12
3.7701693385582e-13
7.5493470019046e-14
1.5029216296086e-14
2.970751646304e-15
5.8346258090363e-16
1.1394529946621e-16
2.2138549015091e-17
4.2811625154774e-18
8.243274539151e-19
1.5809145272457e-19
3.0207524015604e-20
5.7521835238205e-21
1.091846156086e-21
2.0662880691699e-22
3.8994328163161e-23
7.3394875072179e-24
1.3780007725499e-24
2.5811446907247e-25
4.8240176440794e-26
8.9968179153527e-27
1.6745504779183e-27
3.1108491180738e-28
5.7685932409948e-29
1.0678422887319e-29
1.9734398571049e-30
3.6412563054061e-31
6.7083859894737e-32
1.2341024343289e-32
2.2671273925568e-33
4.1592571012885e-34
7.6206646757109e-35
1.3945303111241e-35
2.5488286203516e-36
4.653174110511e-37
8.4853809172018e-38
1.5456927698095e-38
2.8126800536415e-39
5.1130204226834e-40
9.285572933773e-41
1.6847175764343e-41
3.0538331901308e-42
5.5306386263554e-43
1.0007564845296e-43
1.8093207221363e-44
3.2684893113682e-45
5.8997394486021e-46
1.0640996239057e-46
1.9178051065697e-47
3.4538861290172e-48
6.215859647838e-49
1.1178716459359e-49
2.0090366395783e-50
3.6082474580052e-51
6.4762614325015e-52
1.1616592787153e-52
2.0824086517876e-53
3.730715957383e-54
6.6797997999599e-55
1.195323688967e-55
2.1377848504144e-56
3.8212409319695e-57
6.8265065722981e-58
1.2210013324791e-58
2.073531361522e-59
5.5560768784838e-60
0
0
0
0
0
6.5689301488832e-05
0.0013957614135755
0.018922075682153
0.24584473093038
0.8243863129613
0.98758752905922
0.99798829313849
0.99940244973968
0.99960039473106
0.99963533090573
0.99963594637808
0.9987467529076
0.9854726759337
0.8159795331027
0.22394862915399
0.015729152661872
0.0015509788630139
0.00031856182517899
6.5680815708888e-05
1.2214940544653e-05
2.2582306116859e-06
4.3168451343867e-07
8.3644101106915e-08
1.6279161180589e-08
3.3284937479857e-09
8.2752531919979e-10
2.8956632112554e-10
9.2831482308012e-11
2.279477571682e-11
4.8601927337256e-12
1.0087422891055e-12
2.0817463784944e-13
4.2631226822857e-14
8.6536506426432e-15
1.7425062787602e-15
3.4837680063495e-16
6.9204551817655e-17
1.3667355947076e-17
2.6848282398143e-18
5.2483141709879e-19
1.0213145424073e-19
1.9791587161817e-20
3.8204234764939e-21
7.3479527439381e-22
1.4084688683461e-22
2.6911993674443e-23
5.1267826537419e-24
9.739109599667e-25
1.8451726189432e-25
3.4870667118882e-26
6.5742444813076e-27
1.2366475777827e-27
2.3211786830072e-28
4.3478847778433e-29
8.1282171887717e-30
1.5166955056476e-30
2.8250272774732e-31
5.2529216616682e-32
9.7513314480392e-33
1.807341860248e-33
3.3446982608979e-34
6.1807192015041e-35
1.1405390821875e-35
2.1018062243895e-36
3.8681872265218e-37
7.1100783806905e-38
1.3053051830737e-38
2.3935261604786e-39
4.3839891198545e-40
8.0208757775766e-41
1.4659197567057e-41
2.6763874793935e-42
4.8814827840674e-43
8.8947031387254e-44
1.6191996774324e-44
2.9448987819464e-45
5.3512171144337e-46
9.7153338076371e-47
1.7623659182708e-47
3.1943128742175e-48
5.7851045389784e-49
1.0469027916409e-49
1.8930911358583e-50
3.4206999963717e-51
6.1765321357492e-52
1.1144698244734e-52
2.0095238017464e-53
3.6209813569985e-54
6.5204041186425e-55
1.1733953702662e-55
2.1102911156364e-56
3.7928208355238e-57
6.823465983847e-58
1.1697235832722e-58
3.1134351992974e-59
0
0
0
0
0
4.600608344242e-05
0.0010513278159149
0.015575544221076
0.22177189223553
0.81043351221866
0.98750396547785
0.99852527693391
0.99950140844368
0.99963629754779
0.99963611013467
0.99963589288782
0.99818506924368
0.98227545875908
0.80151125902876
0.2171139109685
0.017131149351192
0.0020969529397545
0.00047648926722753
0.00010411714925258
2.0629210049447e-05
3.9797840802883e-06
7.6159928638715e-07
1.451927657088e-07
2.7794445390743e-08
5.5694290021456e-09
1.3840103958382e-09
4.6551726910385e-10
1.5205900323938e-10
3.9962396620664e-11
8.9877034446452e-12
1.935094629655e-12
4.1181264101564e-13
8.6779123259642e-14
1.8099124309749e-14
3.7394190422746e-15
7.6613392339206e-16
1.5578521594863e-16
3.1460922344165e-17
6.313907656923e-18
1.2598766159891e-18
2.5006639978205e-19
4.9391394309624e-20
9.711050108613e-21
1.9012262157423e-21
3.7074375878669e-22
7.2026802254157e-23
1.3944150281176e-23
2.6906413949044e-24
5.1756590530868e-25
9.926471200599e-26
1.8985000942586e-26
3.6213831276114e-27
6.8903798645505e-28
1.3078835275634e-28
2.4768554231128e-29
4.6803989436062e-30
8.8258689984035e-31
1.6609759839879e-31
3.119872001412e-32
5.8494044094194e-33
1.0947619650752e-33
2.045458567894e-34
3.8155095893174e-35
7.1061041060067e-36
1.3214553195533e-36
2.4537970516119e-37
4.5500070758114e-38
8.4254598171441e-39
1.5581274462837e-39
2.8777883797883e-40
5.3085873341036e-41
9.7809298446909e-42
1.8000243676846e-42
3.3089401263044e-43
6.0761181823213e-44
1.1145616896178e-44
2.0423764086849e-45
3.7388136458897e-46
6.8377030628053e-47
1.2493281845479e-47
2.2805716700863e-48
4.1593200277403e-49
7.5791843961509e-50
1.3799197126435e-50
2.5103002491659e-51
4.5629630391704e-52
8.2875515101711e-53
1.5040829372073e-53
2.7276680380269e-54
4.9430279219923e-55
8.9512564666902e-56
1.619795016583e-56
2.9333550739952e-57
5.077115174483e-58
1.3460058930082e-58
0
0
0
0
0
1.4783176413694e-05
0.00042786682621367
0.0071010933330787
0.11541327893258
0.68889475960554
0.97639741623006
0.99804636164618
0.99944829376918
0.99962770653172
0.99963533090573
0.99937619980426
0.99551671226624
0.96343242555699
0.68696510533014
0.15350696523281
0.013967138867307
0.002337023745136
0.00053526091438391
0.00011421775571363
2.2922650448757e-05
4.5603781812413e-06
9.1291661229747e-07
1.8299728017648e-07
3.6689130883562e-08
7.6110525348404e-09
1.8714567492837e-09
6.0254057296595e-10
1.9717599402318e-10
5.3787449530126e-11
1.2629739562517e-11
2.819780399787e-12
6.1947495340985e-13
1.3441864120369e-13
2.8816429182868e-14
6.110546971401e-15
1.2831933270805e-15
2.6712842575376e-16
5.5173912538165e-17
1.1314490153446e-17
2.3051292354707e-18
4.6681071918416e-19
9.4008188817642e-20
1.8834162696858e-20
3.755229166346e-21
7.4536944172845e-22
1.4732408731502e-22
2.9003564534562e-23
5.6885748868517e-24
1.111784055109e-24
2.1656278273392e-25
4.2050260355471e-26
8.1403717845126e-27
1.571354469705e-27
3.0249442839017e-28
5.8080237818045e-29
1.1123917674455e-29
2.1254590180414e-30
4.051886954812e-31
7.7074833194365e-32
1.4630427217497e-32
2.7715749943032e-33
5.2402901783266e-34
9.8895136742607e-35
1.8630108299731e-35
3.5035224664489e-36
6.5776411070652e-37
1.2329241701249e-37
2.3074234916396e-38
4.3118690912994e-39
8.045861120998e-40
1.4992308407627e-40
2.7897981434446e-41
5.1844619555119e-42
9.622295632319e-43
1.7836696443542e-43
3.3023775381576e-44
6.1070394379206e-45
1.1280825369144e-45
2.0814739645852e-46
3.8364915805912e-47
7.0638800115842e-48
1.2993025173742e-48
2.3875185204056e-49
4.3829230638946e-50
8.0384488259678e-51
1.4729303604302e-51
2.6965196333198e-52
4.9322586174356e-53
9.0140110300553e-54
1.6459971798376e-54
3.0032223527533e-55
5.4750889959106e-56
9.9869679012583e-57
1.7454363768057e-57
4.6210769115548e-58
0
0
0
1.5831162425294e-34
3.9400935690789e-32
6.5993070479858e-07
3.879998499222e-05
0.0011082124148489
0.021483144849882
0.29570529627051
0.86241923347782
0.99236090567732
0.99864050316535
0.99940917395951
0.99908832677514
0.99634831128327
0.97846251664616
0.85513026756323
0.36130708471139
0.055934876830702
0.0089468304282847
0.0020577519270745
0.00047845821330178
0.00010410696522578
2.1930653505717e-05
4.5518387004271e-06
9.3459980337654e-07
1.9005730241391e-07
3.8591209575196e-08
8.091150049827e-09
1.9870727053149e-09
6.3259837525951e-10
2.0589152367948e-10
5.678680377454e-11
1.3676971846217e-11
3.1471358960609e-12
7.1314564558088e-13
1.5968665109813e-13
3.5338989984986e-14
7.7188019855363e-15
1.6669857245466e-15
3.5649489851682e-16
7.5529480343614e-17
1.5868515762793e-17
3.3083170565713e-18
6.8483404844479e-19
1.4084007128414e-19
2.8790671103649e-20
5.852585970957e-21
1.1835807780017e-21
2.3820180397678e-22
4.7723239912844e-23
9.5208070938629e-24
1.8918182379855e-24
3.7449662323095e-25
7.3869641424325e-26
1.4521549269477e-26
2.8455299997495e-27
5.558812922148e-28
1.0827565265464e-28
2.1031369497631e-29
4.0742179800059e-30
7.8724463972134e-31
1.5174350514571e-31
2.9180203459806e-32
5.598663670976e-33
1.0718545993036e-33
2.0477560972327e-34
3.9043158625248e-35
7.4296363467425e-36
1.411158356801e-36
2.6754550309509e-37
5.0636064350105e-38
9.5672667473453e-39
1.8047017160501e-39
3.3988761872334e-40
6.3914481207324e-41
1.2001010098563e-41
2.2501452581863e-42
4.2130461602774e-43
7.8775763333868e-44
1.471013941756e-44
2.7433738157774e-45
5.1099043616899e-46
9.5063766215186e-47
1.7664687911633e-47
3.2786818830222e-48
6.0786626028989e-49
1.1257573631684e-49
2.0826754887867e-50
3.8490188952922e-51
7.1062622907478e-52
1.3107077698241e-52
2.4152064409652e-53
4.446274708426e-54
8.1778980918829e-55
1.5027627020422e-55
2.7624541597923e-56
4.8752275040904e-57
1.2919396119193e-57
0
0
0
4.7873344734805e-35
1.7086297835494e-32
-9.7790063045417e-12
3.5001314322429e-07
2.3708414945099e-05
0.00086522875193772
0.032139066889065
0.31100721917112
0.84570162215219
0.98871173635425
0.99392559449891
0.98942199655147
0.96727454702139
0.84716259690676
0.4057899362025
0.078429152244259
0.016371277071261
0.004634057432736
0.0012313595900783
0.00029721228161796
6.885385975181e-05
1.5620513007751e-05
3.4701008391217e-06
7.5391582135214e-07
1.6124220859255e-07
3.4294468589374e-08
7.5475061955861e-09
1.94584748573e-09
6.2451416493135e-10
1.9886845655972e-10
5.4204352023535e-11
1.3165097415607e-11
3.0675658461708e-12
7.0263396354577e-13
1.5882008410904e-13
3.5467858075823e-14
7.8630079543443e-15
1.7300213225385e-15
3.7752477381272e-16
8.1789187369517e-17
1.7592891917685e-17
3.7582929307125e-18
7.9764694050838e-19
1.6822690799931e-19
3.5215612826277e-20
7.3214019730184e-21
1.5125277542792e-21
3.1069506966288e-22
6.3480612840212e-23
1.2904948372848e-23
2.6112247241725e-24
5.2602696247852e-25
1.0552719441662e-25
2.1087863035961e-26
4.1984252094879e-27
8.329459033652e-28
1.6470881028851e-28
3.2466817074758e-29
6.3805780220311e-30
1.2503672845549e-30
2.4435523807065e-31
4.7628197647164e-32
9.2599988778918e-33
1.7959954568363e-33
3.4752686318789e-34
6.7095990161434e-35
1.2926013868928e-35
2.4850010071651e-36
4.7677519047998e-37
9.1296723754599e-38
1.7449349114023e-38
3.328989259339e-39
6.339864820238e-40
1.2053301731499e-40
2.2877745679375e-41
4.3353418734387e-42
8.2027072286343e-43
1.5496535304836e-43
2.9233069833666e-44
5.5067418890451e-45
1.0358880008163e-45
1.9460107094245e-46
3.6509664101836e-47
6.8409406637051e-48
1.280217498173e-48
2.3929059601865e-49
4.4674002878433e-50
8.3307550814915e-51
1.5517670628239e-51
2.8873091397605e-52
5.366561553101e-53
9.9642833282432e-54
1.848221217103e-54
3.4246923197635e-55
6.3470086351071e-56
1.1310874112674e-56
3.0060897533524e-57
0
0
0
1.7600472903615e-36
8.0156899046054e-33
-7.57034126655e-13
1.3334899186214e-08
5.6392805535949e-07
1.95816653273e-05
0.00076252771371476
0.02570829101378
0.19914338585415
0.61105543825094
0.83322861245234
0.81458296399024
0.66606450635642
0.31849895821796
0.072716135994971
0.016474632777948
0.0052737574635464
0.001725244493077
0.00049793448755524
0.00013079496619165
3.2736144125994e-05
7.9674626968091e-06
1.8957604133397e-06
4.4166614920914e-07
1.010931848719e-07
2.3049883256037e-08
5.5319882798158e-09
1.5777984399076e-09
5.2187603149367e-10
1.6218354964045e-10
4.38070722212e-11
1.0871115714914e-11
2.6087044291053e-12
6.1433797160856e-13
1.424649668465e-13
3.2589268661072e-14
7.3559212769051e-15
1.6407315823169e-15
3.6234191081801e-16
7.9293791106542e-17
1.72098760538e-17
3.7071352203439e-18
7.9293638978351e-19
1.6848872399994e-19
3.56686221853e-20
7.5235458060353e-21
1.5806056875484e-21
3.3062568729443e-22
6.8859655942377e-23
1.4280477505535e-23
2.948980175343e-24
6.0646736114762e-25
1.2421034505256e-25
2.5306631285238e-26
5.1304491736119e-27
1.0358163245857e-27
2.0827495187438e-28
4.1725433781734e-29
8.3295857802196e-30
1.6571651968591e-30
3.2865779828272e-31
6.4982833517166e-32
1.2811353670733e-32
2.51895620411e-33
4.9394702871402e-34
9.6615990567329e-35
1.8852641227657e-35
3.670109820325e-36
7.1287611650981e-37
1.3816964351632e-37
2.6724186755001e-38
5.1584790443763e-39
9.9378529298808e-40
1.9109235722026e-40
3.6677558239741e-41
7.0272912825023e-42
1.3440898581259e-42
2.5665132231048e-43
4.8927674298544e-44
9.3128259009486e-45
1.769877742579e-45
3.3585979148987e-46
6.364191283835e-47
1.2042475507609e-47
2.2755777352149e-48
4.2942396893315e-49
8.0930908534651e-50
1.5233172126715e-50
2.8637016550342e-51
5.3769974530484e-52
1.0084147814233e-52
1.8890267287039e-53
3.534666495864e-54
6.606534465926e-55
1.234834034668e-55
2.222054729031e-56
5.9324103021234e-57
0
0
0
-9.0019040838984e-38
3.5992808119338e-36
-5.895734816338e-14
1.4462992941981e-09
6.1891787313503e-08
1.7540653584265e-06
3.3369719085915e-05
0.00052957696850519
0.010109950001708
0.082404850418007
0.19360068451587
0.19417524399155
0.138534569142
0.055388541983859
0.016727593600987
0.0050276589832116
0.0015701391789994
0.00050152366159602
0.00015529351008916
4.4965284490109e-05
1.2229759012034e-05
3.1880738589259e-06
8.0705703875937e-07
1.9964260860402e-07
4.8623041748287e-08
1.1971842084872e-08
3.2366515227612e-09
1.042746466557e-09
3.5204704457785e-10
1.0631158625365e-10
2.8613860408425e-11
7.2833019580369e-12
1.8048275937895e-12
4.3866911784227e-13
1.0484564879014e-13
2.4688468819292e-14
5.7322552256263e-15
1.314510399116e-15
2.9801432068248e-16
6.6857103201679e-17
1.4856111985583e-17
3.2723791316229e-18
7.1505238947393e-19
1.5510112619237e-19
3.3384974620933e-20
7.1338958608248e-21
1.5146627788053e-21
3.1974636504675e-22
6.7140803798761e-23
1.4028625684481e-23
2.917446507565e-24
6.0401105065974e-25
1.2452895894716e-25
2.562361931667e-26
5.2635743630697e-27
1.0781972728844e-27
2.2023997021795e-28
4.4853419807226e-29
9.1071366135981e-30
1.8437381093925e-30
3.721357716251e-31
7.4891959540971e-32
1.5021898617605e-32
2.998977550812e-33
5.9686905083521e-34
1.1844526325788e-34
2.3432775571818e-35
4.6239410155182e-36
9.1003145056043e-37
1.7864680775878e-37
3.4987751396933e-38
6.8365484379501e-39
1.332913281902e-39
2.5933524500254e-40
5.0352730271413e-41
9.7574021836467e-42
1.8872188444358e-42
3.6433909589524e-43
7.0212676606292e-44
1.3507484231388e-44
2.5941840080365e-45
4.9741342781805e-46
9.5223699428747e-47
1.8201200392302e-47
3.4737652910955e-48
6.6200919771721e-49
1.2598149409473e-49
2.3941093578205e-50
4.5435002994828e-51
8.6111484760953e-52
1.6299321957047e-52
3.0812658096341e-53
5.8177209711089e-54
1.0970990112899e-54
2.0686302677915e-55
3.7586944140245e-56
1.0094237470239e-56
0
0
0
-4.4731962801233e-39
1.1087717243015e-35
-5.4053663980329e-15
1.2600084646481e-10
5.2960369573027e-09
1.5743971541861e-07
3.2481214922032e-06
3.4832286160471e-05
0.00022861438036852
0.0017081743970782
0.0073756478481776
0.011261888809369
0.010567780439223
0.0081916139129822
0.0043955020826041
0.0015662800640896
0.00045909493026384
0.00013638362307482
4.2498728685278e-05
1.3090038273512e-05
3.8348047248309e-06
1.0684629947808e-06
2.8688293006744e-07
7.5138256738329e-08
1.9558906518883e-08
5.3450285202546e-09
1.6854439192482e-09
5.9237677064459e-10
1.9599878733966e-10
5.7389919074526e-11
1.5556917167468e-11
4.0659210260526e-12
1.0381137583009e-12
2.5993747575983e-13
6.3967322185378e-14
1.5496836297338e-14
3.701593385317e-15
8.7272156705815e-16
2.0331129264116e-16
4.6841280302277e-17