/*--------------------------------*- C++ -*----------------------------------*\
  =========                 |
  \\      /  F ield         | OpenFOAM: The Open Source CFD Toolbox
   \\    /   O peration     | Website:  https://openfoam.org
    \\  /    A nd           | Version:  7
     \\/     M anipulation  |
\*---------------------------------------------------------------------------*/
FoamFile
{
    version     2.0;
    format      ascii;
    class       surfaceScalarField;
    location    "0.2";
    object      alphaPhi0.water;
}
// * * * * * * * * * * * * * * * * * * * * * * * * * * * * * * * * * * * * * //

dimensions      [0 3 -1 0 0 0 0];

internalField   nonuniform List<scalar> 
11840
(
0
0
0
0
0
0
0
0
0
0
0
0
0
0
0
0
0
0
0
0
0
0
0
0
0
0
0
0
0
0
0
0
0
0
0
0
0
0
0
0
0
0
0
0
0
0
0
0
0
0
0
0
0
0
0
0
0
0
0
0
0
0
0
0
0
0
0
0
0
0
0
0
0
0
0
0
0
0
0
0
0
0
0
0
0
0
0
0
0
0
0
0
0
0
0
0
0
0
0
0
0
0
0
0
0
0
0
0
0
0
0
0
0
0
0
0
0
0
0
0
0
0
0
0
0
0
0
0
0
0
0
0
0
0
0
0
0
0
0
0
0
0
0
0
0
0
0
0
0
0
0
0
0
0
0
0
0
0
0
0
0
0
0
0
0
0
0
0
0
0
0
0
0
0
0
0
0
0
0
0
0
0
0
0
0
0
0
0
0
0
0
0
0
0
0
0
0
0
0
0
0
0
0
0
0
0
0
0
0
0
0
0
0
0
0
0
0
0
0
0
0
0
0
0
0
0
0
0
0
0
0
0
0
0
0
0
0
0
0
0
0
0
0
0
0
0
0
0
0
0
0
0
0
0
0
0
0
0
0
0
0
0
0
0
0
0
0
0
0
0
0
0
0
0
0
0
0
0
0
0
0
0
0
0
0
0
0
0
0
0
0
0
0
0
0
0
0
0
0
0
0
0
0
0
0
0
0
0
0
0
0
0
0
0
0
0
0
0
0
0
0
0
0
0
0
0
0
0
0
0
0
0
0
0
0
0
0
0
0
0
0
0
0
0
0
0
0
0
0
0
0
0
0
0
0
0
0
0
0
0
0
0
0
0
0
0
0
0
0
0
0
0
0
0
0
0
0
0
0
0
0
0
0
0
0
0
0
0
0
0
0
0
0
0
0
0
0
0
0
0
0
0
0
0
0
0
0
0
0
0
0
0
0
0
0
0
0
0
0
0
0
0
0
0
0
0
0
0
0
0
0
0
0
0
0
0
0
0
0
0
0
0
0
0
0
0
0
0
0
0
0
0
0
0
0
0
0
0
0
0
0
0
0
0
0
0
0
0
0
0
0
0
0
0
0
0
0
0
0
0
0
0
0
0
0
0
0
0
0
0
0
0
0
0
0
0
0
0
0
0
0
0
0
0
0
0
0
0
0
0
0
0
0
0
0
0
0
0
0
0
0
0
0
0
0
0
0
0
0
0
0
0
0
0
0
0
0
0
0
0
0
0
0
0
0
0
0
0
0
0
0
0
0
0
0
0
0
0
0
0
0
0
0
0
0
0
0
0
0
0
0
0
0
0
0
0
0
0
0
0
0
0
0
0
0
0
0
0
0
0
0
0
0
0
0
0
0
0
0
0
0
0
0
0
0
0
0
0
0
0
0
0
0
0
0
0
0
0
0
0
0
0
0
0
0
0
0
0
0
0
0
1.4174706527115e-36
2.1116227669948e-36
7.0179246664774e-37
1.0312028674868e-36
6.0643562697517e-38
3.6454267728903e-37
6.8425186826582e-39
5.2172219814757e-38
9.0588736920288e-40
5.9079252387916e-39
2.1095440224972e-40
6.7640640028716e-40
4.6697832729518e-41
1.2870563720418e-40
8.9685966067004e-42
2.6912886287908e-41
1.5664062526563e-42
6.9239354282439e-42
2.7603379272436e-43
1.2196493352769e-42
4.8543674333495e-44
2.1490216105945e-43
8.2892517381109e-45
3.792741000164e-44
1.1846993640697e-45
6.6906962255018e-45
2.7668445056665e-46
7.1645650148724e-46
4.6899762661995e-47
2.1425930146961e-46
6.6399655649948e-48
3.7732695133514e-47
1.505653331222e-48
4.0272648394049e-48
2.100000813683e-49
1.2039028872119e-48
4.9439602667625e-50
1.268862537651e-49
8.3893423505222e-51
3.8027980110914e-50
1.2180517230815e-51
6.6715064505267e-51
2.6626494041724e-52
8.6616532539871e-52
4.6578166908691e-53
2.0524029903335e-52
7.7479781979407e-54
3.6013561335029e-53
1.1148560257339e-54
6.3991878210069e-54
2.4699520098225e-55
7.1937648578733e-55
3.3824069355735e-56
1.9666484644062e-55
6.0588769183153e-57
2.0152851066969e-56
1.0597888302138e-57
3.5136107501483e-57
1.9058693430088e-58
6.2737837793916e-58
3.328037556583e-59
1.1390213578369e-58
6.3211050716733e-60
2.0320979103757e-59
1.4278053849867e-60
3.6927402162398e-60
2.4026098705429e-61
1.0958187364786e-60
4.3576305230448e-62
1.9689570776864e-61
5.9146782786095e-63
3.4499832345282e-62
1.4087614858028e-63
3.5383203011683e-63
2.3615300602909e-64
1.0669796499356e-63
3.1944763885684e-65
1.8647315026558e-64
7.3369393051041e-66
1.9117164952088e-65
9.8572723183743e-67
5.7719626520594e-66
2.2665926529107e-67
5.901260948101e-67
3.0120095107347e-68
1.7832070807932e-67
5.3436406361981e-69
2.1126361109001e-68
1.2244397441991e-69
3.1814360512168e-69
1.6329900539801e-70
9.6129874143548e-70
3.9146403403037e-71
9.7335282350456e-71
6.5379203446957e-72
2.9511097201392e-71
8.7484894784372e-73
5.1386280647639e-72
2.0151333908404e-73
5.2160720155465e-73
2.6802735931751e-74
1.5788648848082e-73
6.1931622595398e-75
1.5987190287634e-74
8.2621454644259e-76
4.8429588860982e-75
1.4441440073277e-76
5.9361276659123e-76
2.6362342262036e-77
8.71485034662e-77
4.4827602272194e-78
1.7715322904636e-77
1.0703345754116e-78
2.6465030297981e-78
1.7825941241361e-79
8.0294312352297e-79
2.3580231265534e-80
1.3953342391251e-79
5.6800936110859e-81
1.3980670760448e-80
9.57461872616e-82
4.2441540007579e-81
1.6872723249404e-82
7.309761281459e-82
2.8204458481371e-83
1.2672860391209e-82
3.7393406715956e-84
2.2036160434681e-83
6.7635227188304e-85
2.3579674741244e-84
1.2141409303432e-85
3.9989492832392e-85
2.1542419133743e-86
7.1283870573996e-86
3.7810514622614e-87
1.2669512956183e-86
8.8842629986528e-88
2.1921469084765e-87
1.4766859167048e-88
6.6219228023748e-88
1.9438270745167e-89
1.1495837410825e-88
3.4855096600476e-90
1.1900263293333e-89
7.9127442428604e-91
2.028662845125e-90
1.0322565134028e-91
6.1422874496747e-91
1.8538304181257e-92
6.5263608675185e-92
3.312658096094e-93
1.0966656323076e-92
5.8472211638826e-94
1.9442317944659e-93
1.0313125828596e-94
3.4350980040616e-94
1.7918375654481e-95
6.065444588639e-95
3.0611780219646e-96
1.2532831573611e-95
5.5159735089039e-97
1.836293746156e-96
1.0805629341909e-97
3.216683502473e-97
7.2909974749838e-98
0
0
0
0
0
0
0
0
0
0
0
0
0
0
0
0
0
0
1.473099286507e-30
0
2.4781109496524e-31
1.2252881915417e-30
4.1687847752413e-32
2.0612324721283e-31
8.5180347391317e-32
0
1.4329404234062e-32
7.0850943157255e-32
2.4105539833003e-33
1.1918850250762e-32
4.0551375420018e-34
2.0050402291001e-33
6.8217267061715e-35
3.3729648713846e-34
4.0119403244892e-35
0
4.4577583558374e-35
-1.6887245925794e-35
8.0468512391937e-36
3.697637063599e-35
1.4639273806568e-36
6.588477281064e-36
3.1325632972846e-37
1.1170675407251e-36
1.7917063806595e-37
6.3953102166565e-38
3.1963278297894e-38
1.3008037664398e-37
8.426366040258e-39
2.077224938442e-38
1.4207321274288e-39
7.0102416125932e-39
2.3956209501497e-40
1.1819786654228e-39
4.0398382177484e-41
1.9930329414369e-40
6.8132528338668e-42
3.3609195381649e-41
8.301385934487e-43
5.9872749461427e-42
4.5951393406732e-43
0
7.7396822205384e-44
3.8223959768451e-43
9.0557418187044e-45
6.8362460630005e-44
4.5631786317609e-45
0
5.9981982256411e-46
3.9639872641895e-45
5.5908259471858e-47
0
5.5901044977401e-47
0
1.9402469943551e-48
5.3964025098205e-47
1.6803471263307e-48
0
8.3394730585523e-50
1.5970473632284e-48
5.0222749530476e-50
2.4475555434729e-50
5.9059921147982e-51
2.9207613647141e-50
1.701872995367e-51
4.2051931312816e-51
2.5864591786039e-53
1.6760882695531e-51
1.4024643911004e-53
0
5.7024373626339e-54
0
1.3888093934367e-54
6.4357844928735e-54
3.06082817594e-55
1.0829127212559e-54
1.5661272834302e-56
0
4.1007154147234e-57
0
4.0906050716621e-57
7.512276737033e-60
1.8511040074366e-58
3.1694110012337e-57
1.2501639024959e-58
5.994953393728e-59
8.4750727942325e-60
0
8.46870248213e-60
0
8.9592612289506e-61
7.5728233154405e-60
3.3017431471227e-61
0
3.4804245940225e-62
2.9537140757518e-61
1.3358522626626e-62
0
2.2449161442875e-64
1.3134069528937e-62
2.241965925123e-64
0
8.1319598353261e-65
0
8.5502498470503e-66
7.2769535692578e-65
3.0758635966531e-66
0
5.1744598379162e-67
2.5584229489089e-66
5.429791056884e-68
4.6314899918769e-67
1.9377618430571e-68
0
2.0269013194536e-69
1.7350742814744e-68
7.5418976695339e-70
0
1.3348044591238e-71
7.4084244224515e-70
1.333027353353e-71
0
5.1819711572911e-73
0
5.1744558768937e-73
0
1.8929483334397e-73
0
3.0148404275089e-74
1.5914651940618e-73
3.3152465715546e-75
2.6833173286303e-74
2.0208423738586e-76
0
2.0189915443058e-76
0
5.7195225867415e-78
1.9617970855448e-76
5.7142884772013e-78
0
1.5129359230415e-79
5.562996862849e-78
1.0853992080869e-79
0
4.1974577688488e-81
0
1.1585236482706e-81
0
7.7357277959214e-82
0
4.5907231472437e-83
0
4.5863776496851e-83
0
6.9172682552413e-85
4.5172053356641e-83
3.2753956710943e-85
0
2.3312574235258e-85
0
6.1819782285912e-87
2.2694376911296e-85
4.3808632640704e-87
0
1.6317014275765e-88
0
4.4954829425157e-89
0
2.9948403968843e-89
0
1.1214593432146e-90
0
1.1197570141638e-90
0
3.9964209216957e-92
0
1.4364255948328e-92
0
0
0
0
0
0
0
0
0
0
0
0
0
0
0
0
1.8200551224848e-08
1.0598014770297e-08
2.3864495499935e-07
1.5059575148606e-07
1.7344109410865e-06
1.1462716724421e-06
9.2073783447761e-06
6.8779747498029e-06
3.2482544294348e-05
3.1984608943641e-05
4.3388807688849e-05
7.0315737092476e-05
4.0058174523012e-05
7.202225137956e-05
2.2387755508531e-05
5.0303656840404e-05
5.740719681015e-06
1.9206177774849e-05
6.1300730989108e-07
3.4792424879753e-06
8.1055483178507e-08
4.2771978429873e-07
1.3591477018297e-08
6.7280442798131e-08
2.2890349596867e-09
1.130255718777e-08
3.8543945187793e-10
1.9036155749073e-09
6.4843570682914e-11
3.2060013311986e-10
1.0867623590293e-11
5.397594709262e-11
1.8012737236052e-12
9.0664314906885e-12
3.0093499058416e-13
1.5007170081036e-12
6.3640173047562e-14
2.4239737089043e-13
2.0331203399331e-14
4.5612752033125e-14
5.778670695178e-15
1.2584571573333e-14
1.0848296021095e-15
2.9760475304257e-15
1.9574002875379e-16
5.8654050653728e-16
3.7799135038471e-17
1.136672767211e-16
7.4351361195244e-18
2.2305817513254e-17
1.4471959862625e-18
4.3647101572984e-18
2.7876960445719e-19
8.4680149057289e-19
5.334339604372e-20
1.6303819448717e-19
1.0153075672209e-20
3.1193969413385e-20
1.9230710166815e-21
5.9357130939757e-21
3.6262727731981e-22
1.1239389121028e-21
6.8103962332658e-23
2.1187944904499e-22
1.274342484363e-23
3.9782365057883e-23
2.3764836502716e-24
7.4422037336424e-24
4.4180838196225e-25
1.3875674243493e-24
8.1900172322299e-26
2.5790711925621e-25
1.5141774371146e-26
4.7800241098442e-26
2.792473599463e-27
8.8357467282803e-27
5.1379801254192e-28
1.6292273131447e-27
9.4330069749044e-29
2.9971995340104e-28
1.7283007492458e-29
5.5018427966457e-29
3.1604685343726e-30
1.0078965410845e-29
5.7689052887731e-31
1.8428511413314e-30
1.0512058134713e-31
3.3633929311995e-31
1.91237675072e-32
6.1280229795715e-32
3.4736512767197e-33
1.1146982450087e-32
6.3002656898916e-34
2.0245285518815e-33
1.1410946205239e-34
3.6715782817605e-34
2.0639661209394e-35
6.64927153777e-35
3.7284428719217e-36
1.2025843544337e-35
6.726985668688e-37
2.1722159797587e-36
1.2122828978587e-37
3.9188655447279e-37
2.1822213156098e-38
7.0617102698798e-38
3.9239588656161e-39
1.2710784775902e-38
7.048540235514e-40
2.2854260442784e-39
1.2648531617572e-40
4.1049934888833e-40
2.2675835111386e-41
7.365891003002e-41
4.0614753972618e-42
1.320448911217e-41
7.2680171878665e-43
2.364919976437e-42
1.2994903637453e-43
4.2317888324143e-43
2.3214955206995e-44
7.5658473165024e-44
4.1439288143821e-45
1.3515428410961e-44
7.3912469867382e-46
2.4124184818852e-45
1.3173309238033e-46
4.3026632524721e-46
2.3461404306218e-47
7.6682215601192e-47
4.1754641227434e-48
1.3656351648642e-47
7.4260241971852e-49
2.4303404995323e-48
1.3198287541854e-49
4.3221628741546e-49
2.3442114916974e-50
7.6814894929074e-50
4.1610405073018e-51
1.3642953055007e-50
7.3814324748681e-52
2.4215748562462e-51
1.3086399653827e-52
4.2955775077429e-52
2.3187155515472e-53
7.6152928110077e-53
4.1060968067235e-54
1.3492734072173e-53
7.2672762941698e-55
2.3892865847335e-54
1.2855265082771e-55
4.2286116256643e-55
2.2728099702211e-56
7.4798812392092e-56
4.0162760151635e-57
1.3224059097419e-56
7.0936164449575e-58
2.3367574108487e-57
1.2522780112964e-58
4.1271154193156e-58
2.2096713618483e-59
7.2856599832079e-59
3.8972053259442e-60
1.2855395541671e-59
6.8704022502352e-61
2.2672584103674e-60
1.210650426042e-61
3.9968718805903e-61
2.1323934894403e-62
7.0428345501958e-62
3.7543266446437e-63
1.2404722776387e-62
6.6071909875448e-64
2.1839519049026e-63
1.1623197997775e-64
3.8434343978707e-64
2.04390480652e-65
6.7611439171884e-65
3.593182615119e-66
1.1889000709215e-65
6.2852797741463e-67
2.0904185657537e-66
1.2254458376922e-67
3.6316003652379e-67
8.1752808101054e-68
0
0
0
0
0
0
0
0
0
0
0
0
3.0119873977023e-08
1.3226155892753e-08
5.5959711002373e-07
2.7508840906501e-07
4.6180343463054e-06
2.5372394129645e-06
2.5145897214526e-05
1.5100010453694e-05
0.00010882663911398
7.1339436715816e-05
0.00044794195103374
0.00033281981520767
0.0012149205083339
0.001150993281453
0.001221885509355
0.0015646345209566
0.0006755674238147
0.0013551681181425
0.00014484454693746
0.00057449471193229
1.4947181677825e-05
9.7962076410444e-05
2.2933671103639e-06
1.2065987219026e-05
3.972889715156e-07
1.9631061114754e-06
6.8714751004996e-08
3.3870421402381e-07
1.1878340913303e-08
5.8539819966946e-08
2.0518209913236e-09
1.011304893082e-08
3.5404122295079e-10
1.7459857917203e-09
6.0934526981484e-11
3.0121390986886e-10
1.0412361449652e-11
5.1864666231468e-11
1.7674645131453e-12
8.8643907309882e-12
3.6041386967975e-13
1.466598565166e-12
1.0728789832814e-13
2.6514344639112e-13
2.990032971989e-14
6.5220201620884e-14
5.9657943105364e-15
1.5449227861807e-14
1.1394709844821e-15
3.2015071833889e-15
2.2413080841688e-16
6.4035361453695e-16
4.4504294014335e-17
1.2775882823577e-16
8.7663471739849e-18
2.5344324195188e-17
1.709879391247e-18
4.9833727681728e-18
3.3098679757446e-19
9.7166226155697e-19
6.3673016567465e-20
1.8809858858614e-19
1.2181553721315e-20
3.6185938373366e-20
2.3189178016694e-21
6.9227857771137e-21
4.3945039646715e-22
1.3178213305123e-21
8.2938185291315e-23
2.4973314911561e-22
1.5594532076008e-23
4.7132249321481e-23
2.9221041180491e-24
8.86207499904e-24
5.458081887265e-25
1.6605819992679e-24
1.0164989092271e-25
3.1017608947585e-25
1.887930559502e-26
5.7767126582007e-26
3.4974950759413e-27
1.0729198002367e-26
6.4638532400345e-28
1.9876843795734e-27
1.1919365861161e-28
3.6736045429493e-28
2.1933090294206e-29
6.7743256173444e-29
4.0279473597207e-30
1.2465968205662e-29
7.3833344077335e-31
2.2894143259005e-30
1.3509815477935e-31
4.196706622383e-31
2.4678233655976e-32
7.6793044911914e-32
4.5007293197587e-33
1.4028259388282e-32
8.1957628100621e-34
2.5585306015961e-33
1.4902682293345e-34
4.6592476083052e-34
2.7060553633363e-35
8.472472234105e-35
4.907186957785e-36
1.538516787724e-35
8.887443835172e-37
2.790091896196e-36
1.6076534051774e-37
5.0533985579592e-37
2.9046960145089e-38
9.141559226835e-38
5.2422977510453e-39
1.6517718393329e-38
9.4509216489707e-40
2.9812121062388e-39
1.7020633285389e-40
5.3748636116745e-40
3.0622656876638e-41
9.6803560698223e-41
5.5041615896328e-42
1.7417307731663e-41
9.8840581592842e-43
3.1307764077955e-42
1.7733279078939e-43
5.6223651186926e-43
3.1788168994059e-44
1.0087784854164e-43
5.6934701519881e-45
1.8084037428158e-44
1.0189089202027e-45
3.2391431933461e-45
1.822013399399e-46
5.7971128527682e-46
3.2556386598939e-47
1.0366957280169e-46
5.8129859657998e-48
1.852504780103e-47
1.0371709156026e-48
3.3078502896913e-48
1.849261969678e-49
5.9022873961066e-49
3.2949759611092e-50
1.0524268575212e-49
5.8670530870912e-51
1.8752932731717e-50
1.0440219259206e-51
3.3393382708259e-51
1.8566437701318e-52
5.9425582863156e-52
3.299773374165e-53
1.0568560142779e-52
5.8611535493025e-54
1.8784287543437e-53
1.0404761782871e-54
3.3366991357725e-54
1.8460249589586e-55
5.9236498899477e-55
3.273448024302e-56
1.0510371082622e-55
5.8015175481976e-57
1.8638420932108e-56
1.0276651895471e-57
3.3034550467916e-57
1.8194533874849e-58
5.8519620076873e-58
3.219694354739e-59
1.0361288808869e-58
5.6947905907795e-60
1.8336245445163e-59
1.0067811211333e-60
3.2433690961632e-60
1.7790623748205e-61
5.7342477067423e-61
3.1423209605562e-62
1.0133401553249e-61
5.5477576964684e-63
1.7899348701076e-62
9.7902739737032e-64
3.1602885438893e-63
1.7271779115814e-64
5.5773090083855e-64
3.0320503679832e-65
9.8414976046138e-65
5.9314211255169e-66
1.7162765817225e-65
3.8754035162069e-66
0
0
0
0
0
0
0
0
0
0
1.2736526961973e-08
4.5977976299618e-09
4.1373650314453e-07
1.5793733340402e-07
5.1301895111199e-06
2.1508003972338e-06
3.7562803286876e-05
1.747155839262e-05
0.00019328977705464
0.00010155650574876
0.00096107178182807
0.00053590721541395
0.0032201767782713
0.0017136925167131
0.004315425288942
0.0023455522001529
0.004121097830709
0.0024387653585471
0.0035811789613191
0.0024198987672043
0.0019309094570107
0.0022189910682588
0.00032558352489618
0.0013034450143387
3.5391622765648e-05
0.00022833139936552
5.8205312782356e-06
3.0253745785234e-05
1.0400711023632e-06
5.0914728218982e-06
1.8432129888803e-07
9.0397146972945e-07
3.2622137410504e-08
1.6003803349624e-07
5.7676491712182e-09
2.8295241387356e-08
1.0184663705126e-09
4.9979144273366e-09
1.794760361907e-10
8.818874625696e-10
3.149277284724e-11
1.5531546969828e-10
5.5410887945052e-12
2.7193753683027e-11
1.1175450256651e-12
4.6488159228108e-12
2.956864658223e-13
8.4686554574358e-13
7.9849204680589e-14
1.8531812388168e-13
1.721829576817e-14
4.2889816213482e-14
3.4210646902006e-15
9.1205277379228e-15
6.8070400859687e-16
1.8587278145196e-15
1.3587801836574e-16
3.7451636910854e-16
2.6937118265359e-17
7.4867958526323e-17
5.2921733914236e-18
1.4833546138619e-17
1.0317836357783e-18
2.9142810358793e-18
1.9986548220741e-19
5.6835070424801e-19
3.8495015294643e-20
1.1012731169841e-19
7.3762393658928e-21
2.1216664737788e-20
1.4068257242137e-21
4.066461657337e-21
2.6717884792752e-22
7.7576086453506e-22
5.0544826574757e-23
1.4736458646583e-22
9.5279572761139e-24
2.7884912772183e-23
1.7901516101535e-24
5.2576570858624e-24
3.3531344801644e-25
9.8805409123968e-25
6.2629007220863e-26
1.851139082744e-25
1.1666634533192e-26
3.4582755488808e-26
2.1678769633097e-27
6.4435400194227e-27
4.0189135868702e-28
1.1975878018297e-27
7.4340814441011e-29
2.2206195356299e-28
1.3722858812373e-29
4.1085117898821e-29
2.5281896951658e-30
7.5856456348937e-30
4.6490836806785e-31
1.3978074686956e-30
8.534121051858e-32
2.5709511862381e-31
1.5639458039175e-32
4.720337687845e-32
2.8614807040283e-33
8.6521256195949e-33
5.2275508211848e-34
1.5833533354988e-33
9.536164612821e-35
2.893145341461e-34
1.7371799961196e-35
5.2787339283057e-35
3.1603642756169e-36
9.6179825615538e-36
5.7421509146569e-37
1.7500825768606e-36
1.0420282666328e-37
3.1803677579945e-37
1.8887422684778e-38
5.7724835599834e-38
3.4195877197695e-39
1.0464910157315e-38
6.1844487326157e-40
1.8950265572855e-39
1.1173048382538e-40
3.4278392910978e-40
2.0165177097365e-41
6.193957449881e-41
3.6358619233495e-42
1.1180850567823e-41
6.5494096002141e-43
2.0163023065328e-42
1.1786911098639e-43
3.632662827293e-43
2.119404611135e-44
6.5387817481585e-44
3.8076410490083e-45
1.1759364180833e-44
6.8349918599054e-46
2.1129943986851e-45
1.2259447899822e-46
3.7936039433572e-46
2.197177891104e-47
6.8054337797717e-47
3.9348746886231e-48
1.2198890114829e-47
7.0416993152414e-49
2.185020425458e-48
1.2592559004555e-49
3.9108474529461e-49
2.250345020511e-50
6.9948035116204e-50
4.0187508231038e-51
1.2501959592689e-50
7.1721241877965e-52
2.2329904296093e-51
1.2791657612976e-52
3.9857470935724e-52
2.2800028294107e-53
7.1097492373107e-53
4.0614434122691e-54
1.267440960865e-53
7.2305033156511e-55
2.2580681284666e-54
1.2864891465206e-55
4.0205812434014e-55
2.2877012794437e-56
7.1546686300328e-56
4.065874522232e-57
1.2724631477988e-56
7.2223036801769e-58
2.2618395643654e-57
1.2822422127492e-58
4.0183238205061e-58
2.2753183813827e-59
7.1350999685781e-59
4.035497631694e-60
1.2662878108147e-59
7.1538476362797e-61
2.2461929971015e-60
1.2675778645704e-61
3.9824364063203e-61
2.2449429708932e-62
7.0573639705736e-62
3.9745075721717e-63
1.2500566270263e-62
7.0024362190046e-64
2.2137700877582e-63
1.3745029681279e-64
3.8755761378866e-64
8.7785094804038e-65
0
0
0
0
0
0
0
0
0
0
1.182425171982e-07
3.6753098480462e-08
2.4858041256302e-06
8.2383973823267e-07
2.6711559569204e-05
9.4860430218648e-06
0.00018933499208563
7.4034016820925e-05
0.0011825075074242
0.00054736560792585
0.0037968478738142
0.0019103967893436
0.0047733757762569
0.0024181199208704
0.004913084662903
0.0024825947726991
0.0049205729020702
0.0024935195053311
0.0048913184683499
0.0024914726564714
0.0046273166169437
0.0024811311915128
0.0029525712551073
0.0024042586721571
0.00046452403949825
0.0015830273320019
4.5753749603736e-05
0.00028361538287624
7.8393214700839e-06
3.9192585817038e-05
1.47749367398e-06
6.9697810633585e-06
2.6997574176708e-07
1.2818954984993e-06
4.9221202737117e-08
2.3408537751502e-07
8.956904234337e-09
4.2648784287051e-08
1.6266077127063e-09
7.7557965042723e-09
2.9455171028954e-10
1.4075123421689e-09
5.3243626737342e-11
2.5493995385577e-10
9.7583449112505e-12
4.5891972877017e-11
2.0640105259344e-12
8.1086129918064e-12
5.5394869540704e-13
1.5269078798438e-12
1.4666361071846e-13
3.3504703328239e-13
3.1913757371933e-14
7.6476334061322e-14
6.4675545224515e-15
1.6357009743771e-14
1.3026188662792e-15
3.3714842457307e-15
2.6174445599819e-16
6.8529882544695e-16
5.2193308841857e-17
1.3797837384754e-16
1.0318820450374e-17
2.7527992004905e-17
2.0248053500289e-18
5.4463096547086e-18
3.9473563026947e-19
1.0696005679226e-18
7.6508470172122e-20
2.0869078535564e-19
1.4751623885171e-20
4.0480770355395e-20
2.8307856414761e-21
7.8110314288587e-21
5.408679540323e-22
1.5000092474043e-21
1.0293152373415e-22
2.8680497556893e-22
1.9517042027766e-23
5.4618917695816e-23
3.6881354351442e-24
1.0363329712839e-23
6.9475523302544e-25
1.9596327710676e-24
1.304914126339e-25
3.6938096127279e-25
2.4442194232966e-26
6.9421212474719e-26
4.5664744689163e-27
1.3011013608074e-26
8.5108218983901e-28
2.4322380676155e-27
1.5826039023885e-28
4.5357007512333e-28
2.9365559364148e-29
8.4389223101228e-29
5.4377571004872e-30
1.5667120606698e-29
1.0049921591614e-30
2.9026949772717e-30
1.8539966449956e-31
5.3674712709896e-31
3.4142655556904e-32
9.9068695779717e-32
6.2771629648733e-33
1.825326001365e-32
1.1522328286199e-33
3.3575120409859e-33
2.1118272198914e-34
6.1659645686075e-34
3.8649707175401e-35
1.1306326310364e-34
7.0636657724778e-36
2.0701775897667e-35
1.2892431382623e-36
3.7851741533694e-36
2.3500835126521e-37
6.9116397708229e-37
4.2785547930098e-38
1.2604233980256e-37
7.7803018732098e-39
2.2956920927802e-38
1.4131892566559e-39
4.1763123955362e-39
2.5640506007515e-40
7.5888081684655e-40
4.6472074606196e-41
1.377442249046e-40
8.4141955398538e-42
2.4975223241254e-41
1.521959856064e-42
4.5237383855178e-42
2.7502870568882e-43
8.1856428176105e-43
4.9653572883972e-44
1.4797541701925e-43
8.9563974572644e-45
2.6725223000519e-44
1.6141305654534e-45
4.8223740464467e-45
2.9065505913089e-46
8.6940151951798e-46
5.22952139401e-47
1.5660707984556e-46
9.4015881001035e-48
2.8186741169546e-47
1.688906518314e-48
5.0691049098357e-48
3.0316883765603e-49
9.1092074330366e-49
5.438098517575e-50
1.6356949335186e-49
9.7476910889358e-51
2.9349824021173e-50
1.7460506975135e-51
5.2625815515232e-51
3.1255051812695e-52
9.4295421982215e-52
5.5911278312366e-53
1.6884520850357e-52
9.9954344261656e-54
3.0213485651782e-53
1.7858044824188e-54
5.402989941569e-54
3.1886200242533e-55
9.6559653834738e-55
5.6900310919897e-56
1.7246149631134e-55
1.014788782721e-56
3.0784346454478e-56
1.8088048997873e-57
5.4918067218574e-57
3.2223189061777e-58
9.7916078174019e-58
5.7373521015206e-59
1.7448253112896e-58
1.0210004671291e-59
3.1075245925244e-59
1.8160045247288e-60
5.5315542317431e-60
3.2284070940251e-61
9.8413553858321e-61
5.7370523904913e-62
1.7500083585792e-61
1.0146347899484e-62
3.1111209196994e-62
1.9987895701966e-63
5.4690456446902e-63
1.2429319734331e-63
0
0
0
0
0
0
0
0
0
1.9569916567138e-30
4.9737584454074e-07
1.2686639983272e-07
9.449964427676e-06
2.568090220466e-06
9.8272530644342e-05
2.7803352972694e-05
0.00079474949806007
0.0002677036520663
0.0035593581294195
0.001655926957635
0.0048272446641166
0.0023853858695783
0.0049565554630207
0.0024773270859777
0.0049808197888849
0.0024932742053695
0.004988296048434
0.0024969178083477
0.0049861459122102
0.0024968584245039
0.0049702433155801
0.0024965535942987
0.00479784515669
0.0024894900211283
0.0026983844052722
0.0023929951274059
0.00030994669222731
0.0013316369407606
3.493353081711e-05
0.00017891758218255
6.6329073266969e-06
2.8378426051726e-05
1.3000488901184e-06
5.4465635172926e-06
2.4766028791216e-07
1.0353203394429e-06
4.6942639442308e-08
1.9610851548532e-07
8.7386274258113e-09
3.7052060303851e-08
1.6110142337197e-09
6.9758092699578e-09
2.9869987226161e-10
1.3117553250241e-09
5.5887914875803e-11
2.4594079573028e-10
1.0854611672777e-11
4.5769159000872e-11
2.5259850736027e-12
8.4125072493126e-12
6.9709236732184e-13
1.6678895931753e-12
1.7701370059075e-13
3.7912427892519e-13
3.8263105825016e-14
8.5893058656441e-14
7.8422921242917e-15
1.8378428532347e-14
1.5951713000268e-15
3.8188314566527e-15
3.2290877613087e-16
7.8344415871349e-16
6.4837572885723e-17
1.5916245033397e-16
1.2911973498326e-17
3.2039630348545e-17
2.5527988546379e-18
6.3964937121804e-18
5.0149280948489e-19
1.2676861620148e-18
9.7951609430366e-20
2.4959588389112e-19
1.9032035988799e-20
4.8853989681114e-20
3.680291950732e-21
9.5112333404512e-21
7.085540781023e-22
1.8426839664101e-21
1.3586448796681e-22
3.5540002125015e-22
2.5954430595699e-23
6.8263612570973e-23
4.940885977301e-24
1.3061714224564e-23
9.3753672690503e-25
2.4903956101606e-24
1.7735903457121e-25
4.732587852057e-25
3.3456614161975e-26
8.9657138876214e-26
6.2943125983822e-27
1.693600416525e-26
1.1811886656241e-27
3.190455173405e-27
2.2113412013768e-28
5.994852413757e-28
4.1306013727064e-29
1.1237009664904e-28
7.6991475659743e-30
2.1014844313121e-29
1.4321563765196e-30
3.9215401946017e-30
2.6588850784719e-31
7.3028075493212e-31
4.9273066794547e-32
1.3572802923432e-31
9.1150094997649e-33
2.5178864866987e-32
1.6833564874546e-33
4.6625879943888e-33
3.1038308045892e-34
8.6193966886774e-34
5.7141588465892e-35
1.5908081691868e-34
1.050428011228e-35
2.93143205418e-35
1.928259996436e-36
5.3937507421241e-36
3.5348758512472e-37
9.9100774197492e-37
6.4716420918254e-38
1.8182885388549e-37
1.1833349139038e-38
3.3317396458315e-38
2.1610936459637e-39
6.0971003267987e-39
3.9421298288628e-40
1.1143969215301e-39
7.1828589216049e-41
2.0344162530098e-40
1.3073428522647e-41
3.7097194809303e-41
2.3769670937947e-42
6.7571048257748e-42
4.3173104882617e-43
1.2294606724948e-42
7.8338272193008e-44
2.2346948981717e-43
1.4200993096722e-44
4.0577553969551e-44
2.5719363958566e-45
7.3609048350724e-45
4.6538313953896e-46
1.3340350830727e-45
8.4135935432033e-47
2.4154962406084e-46
1.5197910239747e-47
4.3697874164851e-47
2.7430149896803e-48
7.8984211651666e-48
4.9468012265673e-49
1.4264514166174e-48
8.9141980518347e-50
2.5740714470485e-49
1.6051321146998e-50
4.6413130823826e-50
2.8881432253468e-51
8.3623260733283e-51
5.1929540739915e-52
1.505525809048e-51
9.3305248196768e-53
2.7085240835549e-52
1.6753333840235e-53
4.8693251239658e-53
3.0061278673685e-54
8.7479101619036e-54
5.3905340626549e-55
1.5705323241024e-54
9.6600875165458e-56
2.8177579001798e-55
1.7300624793914e-56
5.0522126558011e-56
3.0965655806905e-57
9.05289287099e-57
5.5391434710137e-58
1.6211655452186e-57
9.9027228129862e-59
2.9014009162138e-58
1.7693834173144e-59
5.1896068264755e-59
3.1597234782845e-60
9.2771219496625e-60
5.6400384372366e-61
1.6574765606907e-60
1.0019927269525e-61
2.9603489995485e-61
1.9824465700845e-62
5.229630819851e-62
1.1935415521856e-62
0
0
0
0
0
0
0
0
1.7923848815929e-30
1.6460677512088e-31
1.0536470766582e-06
1.8235646863851e-07
2.1423967209384e-05
3.8857672736572e-06
0.00026481838592513
5.0640385918759e-05
0.0023960737550471
0.00065487431368272
0.0046705657810056
0.0021047524346904
0.0049598637142109
0.0024392257393338
0.0049861777011503
0.0024865407615065
0.0049931035639844
0.0024962634122533
0.0049954761057967
0.002497987182517
0.0049958550744886
0.0024982794351434
0.0049944654839749
0.0024981556200741
0.0049712887491986
0.0024972965906369
0.004534949315134
0.0024673285560584
0.0014001249934719
0.0020299783212354
0.00010381300589429
0.00052019554709566
1.4812074189546e-05
6.8066394851271e-05
3.0224246059956e-06
1.2762934541396e-05
5.8360511213239e-07
2.500435144035e-06
1.1224584264718e-07
4.832259443026e-07
2.1525911246853e-08
9.2722856067199e-08
4.1297829201715e-09
1.7778152576906e-08
7.9372568963856e-10
3.4056212640609e-09
1.5350341469321e-10
6.511653415268e-10
3.0535774808375e-11
1.2411296721391e-10
6.4825513425642e-12
2.3590176380692e-11
1.8988031442903e-12
4.5967292516093e-12
5.6177750928121e-13
1.0606089595464e-12
1.3368310684902e-13
2.5614412739766e-13
2.8455834414126e-14
5.7911169110643e-14
5.939145771988e-15
1.251450855284e-14
1.2322453636924e-15
2.651264444065e-15
2.5338578870646e-16
5.545276209084e-16
5.1599945853375e-17
1.1467236352535e-16
1.041732472639e-17
2.347350460587e-17
2.087174797568e-18
4.7621217738269e-18
4.1533891486988e-19
9.5844036459921e-19
8.2142700927141e-20
1.9152766164147e-19
1.615466300525e-20
3.8027729573014e-20
3.1607946290172e-21
7.5063182635155e-21
6.1552201443613e-22
1.4737714756281e-21
1.193429305169e-22
2.879382421351e-22
2.3045898157861e-23
5.6001521227681e-23
4.433601346376e-24
1.084617852253e-23
8.4995228666561e-25
2.0924663675293e-24
1.6240701310705e-25
4.0221586666631e-25
3.0936768496014e-26
7.7051473823284e-26
5.8760323393343e-27
1.4713480916051e-26
1.1130231985696e-27
2.8012080890342e-27
2.1028115861824e-28
5.3179681089953e-28
3.9630745320569e-29
1.0068961055699e-28
7.4516848025329e-30
1.9016227593447e-29
1.3980324678712e-30
3.5827935458599e-30
2.6173802487671e-31
6.7348695920104e-31
4.8904168006864e-32
1.2632657626725e-31
9.1199816325573e-33
2.3646279876083e-32
1.6976485429314e-33
4.4174802051502e-33
3.1545794326109e-34
8.2369841054319e-34
5.852033644853e-35
1.533130515552e-34
1.0838608235018e-35
2.8486581543462e-35
2.0043305866913e-36
5.2842416630151e-36
3.7010107029285e-37
9.7866700336207e-37
6.8241866947338e-38
1.8097731724078e-37
1.256562173294e-38
3.3417625300432e-38
2.3106873766152e-39
6.1618773049901e-39
4.2436825928939e-40
1.1346421380301e-39
7.7840982133204e-41
2.0865762347789e-40
1.4261184444383e-41
3.8322954785241e-41
2.6097682915197e-42
7.0299444652556e-42
4.7704972353775e-43
1.28804417413e-42
8.7107616909409e-44
2.357286741125e-43
1.5888908394874e-44
4.3093604732745e-44
2.8952853042341e-45
7.86949997673e-45
5.2706150717124e-46
1.4355877718322e-45
9.5855377357801e-47
2.6162205225984e-46
1.7416822980014e-47
4.763146746983e-47
3.1617690345179e-48
8.6636521517341e-48
5.734704522484e-49
1.5743718766453e-48
1.0392549837994e-49
2.8584079533193e-49
1.8817995434716e-50
5.1851636388708e-50