/*--------------------------------*- C++ -*----------------------------------*\
  =========                 |
  \\      /  F ield         | OpenFOAM: The Open Source CFD Toolbox
   \\    /   O peration     | Website:  https://openfoam.org
    \\  /    A nd           | Version:  7
     \\/     M anipulation  |
\*---------------------------------------------------------------------------*/
FoamFile
{
    version     2.0;
    format      ascii;
    class       surfaceScalarField;
    location    "0.9";
    object      alphaPhi0.water;
}
// * * * * * * * * * * * * * * * * * * * * * * * * * * * * * * * * * * * * * //

dimensions      [0 3 -1 0 0 0 0];

internalField   nonuniform List<scalar> 
11840
(
0
0
0
0
0
0
0
0
0
0
0
0
0
0
0
0
0
0
0
0
0
0
0
0
0
0
0
0
0
0
0
0
0
0
0
0
0
0
0
0
0
0
0
0
0
0
0
0
0
0
0
0
0
0
0
0
0
0
0
0
0
0
0
0
0
0
0
0
0
0
0
0
0
0
0
0
0
0
0
0
0
0
0
0
0
0
0
0
0
0
0
0
0
0
0
0
0
0
0
0
0
0
0
0
0
0
0
0
0
0
0
0
0
0
0
0
0
0
0
0
0
0
0
0
0
0
0
0
0
0
0
0
0
0
0
0
0
0
0
0
0
0
0
0
0
0
0
0
0
0
0
0
0
0
0
0
0
0
0
0
0
0
0
0
0
0
0
0
0
0
0
0
0
0
0
0
0
0
0
0
0
0
0
0
0
0
0
0
0
0
0
0
0
0
0
0
0
0
0
0
0
0
0
0
0
0
0
0
0
0
0
0
0
0
0
0
0
0
0
0
0
0
0
0
0
0
0
0
0
0
0
0
0
0
0
0
0
0
0
0
0
0
0
0
0
0
0
0
0
0
0
0
0
0
0
0
0
0
0
0
0
0
0
0
0
0
0
0
0
0
0
0
0
0
0
0
0
0
0
0
0
0
0
0
0
0
0
0
0
0
0
0
0
0
0
0
0
0
0
0
0
0
0
0
0
0
0
0
0
0
0
0
0
0
0
0
0
0
0
0
0
0
0
0
0
0
0
0
0
0
0
0
0
0
0
0
0
0
0
0
0
0
0
0
0
0
0
0
0
0
0
0
0
0
0
0
0
0
0
0
0
0
0
0
0
0
0
0
0
0
0
0
0
0
0
0
0
0
0
0
0
0
0
0
0
0
0
0
0
0
0
0
0
0
0
0
0
0
0
0
0
0
0
0
0
0
0
0
0
0
0
0
0
0
0
0
0
0
0
0
0
0
0
0
0
0
0
0
0
0
0
0
0
0
0
0
0
0
0
0
0
0
0
0
0
0
0
0
0
0
0
0
0
0
0
0
0
0
0
0
0
0
0
0
0
0
0
0
0
0
0
0
0
0
0
0
0
0
0
0
0
0
0
0
0
0
0
0
0
0
0
0
0
0
0
0
0
0
0
0
0
0
0
0
0
0
0
0
0
0
0
0
0
0
0
0
0
0
0
0
0
0
0
0
0
0
0
0
0
0
0
0
0
0
0
0
0
0
0
0
0
0
0
0
0
0
0
0
0
0
0
0
0
0
0
0
0
0
0
0
0
0
0
0
0
0
0
0
0
0
0
0
0
0
0
0
0
0
0
0
0
0
0
0
0
0
0
0
0
0
0
0
0
0
0
0
0
0
0
0
0
0
0
0
0
0
0
0
0
0
0
0
0
0
0
0
0
0
0
0
0
0
0
0
0
0
0
0
0
0
0
1.2274356701023e-50
6.6088991038969e-51
8.1589839262143e-50
5.4994352773438e-50
4.2017168255082e-49
2.8973240514166e-49
1.8573580118567e-48
1.3282820053447e-48
6.2702897616306e-48
4.3886044303026e-48
4.3830084175196e-47
2.6055397289123e-47
1.8897303832715e-46
1.3212948771929e-46
8.0987150250423e-46
5.7090344995794e-46
3.4768627800265e-45
2.363891831034e-45
3.4368184144523e-44
2.1502080164598e-44
4.5417568151947e-43
1.3747171616054e-43
2.6817330472255e-42
1.0683885880662e-42
3.9507448435374e-42
1.9495005358253e-42
3.8498940372283e-42
3.1246959129404e-42
4.3436430430424e-42
2.7392888400212e-42
4.3641828612784e-42
2.5039352415808e-42
2.7725918722213e-42
2.5682833860126e-42
1.1238982513339e-42
1.1946474853241e-42
2.1979772082698e-43
5.0630534487612e-43
3.3273880248478e-44
1.0468016708521e-43
5.4675234719194e-45
2.4720986387023e-44
1.2882122309562e-45
3.1744601209096e-45
2.2060471606342e-46
9.7852028028624e-46
4.8614626270881e-47
2.0283866007499e-46
1.0772036454206e-47
2.645179729062e-47
2.0594440919009e-48
8.3532317176287e-48
3.2716123735763e-49
1.5956292665284e-48
6.7576115310898e-50
1.9336121075675e-49
1.4461168695499e-50
3.7104168527873e-50
2.9706016902696e-51
1.2494492851248e-50
4.9677812857983e-52
2.4289926476906e-51
1.0488130155687e-52
3.0442254423169e-52
2.487445174522e-53
6.2864908586092e-53
4.4873301347334e-54
1.8894884109211e-53
7.2715864550598e-55
3.7935852484196e-54
1.3659683314244e-55
4.9791902733422e-55
3.5387773332077e-56
8.4135011878051e-56
6.4490302205058e-57
2.6926365122914e-56
9.6278450219609e-58
5.1297322541757e-57
2.4122654563106e-58
5.9562742486845e-58
3.5825419654498e-59
1.9138009200719e-58
9.0734924911207e-60
2.2141019525582e-59
1.4227366149262e-60
7.1250595663091e-60
2.5273656713478e-61
1.0769243061657e-60
6.3328708689495e-62
1.5634381244659e-61
9.3753900278266e-63
5.0277490656638e-62
2.4434503730652e-63
5.7727332319814e-63
4.4344000186105e-64
1.8633423081712e-63
6.6046223278518e-65
3.5304538021062e-64
1.6545853504955e-65
4.0829996869568e-65
2.4476528154184e-66
1.3136032789431e-65
6.3810154493234e-67
1.5062170397716e-66
1.1592442972499e-67
4.8641012256224e-67
1.7458670578172e-68
9.2125625707066e-68
3.6633276471234e-69
1.0982244980775e-68
6.4942019747432e-70
2.749658749223e-69
1.692905786057e-70
3.9950128261951e-70
3.0705149713538e-71
1.2905678729164e-70
4.5518304140369e-72
2.4448245708963e-71
1.1887546577808e-72
2.7970867776124e-72
2.1872316163931e-73
9.0281213572041e-73
4.174122525451e-74
1.6898716782443e-73
7.6358977106664e-75
3.1923545294351e-74
1.1521219386023e-75
6.0578940745631e-75
2.1697671292243e-76
8.5566117833512e-76
4.6865421164846e-77
1.3575970143725e-76
9.7280088857651e-78
2.8289044231843e-77
1.9635578097494e-78
5.836072438989e-78
4.7548980227557e-79
1.1557425657996e-78
8.612726628368e-80
3.6068329757091e-79
1.2876142912847e-80
6.8392982240953e-80
2.7531979414438e-81
8.07079194404e-81
6.5116649659725e-82
1.6395265549751e-81
9.448481106665e-83
5.1567625378254e-82
1.8363024217093e-83
6.9148064501369e-83
3.9530477478294e-84
1.1498994083624e-83
8.1814092476761e-85
2.387227901959e-84
1.6568408230814e-85
4.9032513986193e-85
3.6752632900995e-86
9.8615185167949e-86
5.7605791999352e-87
2.8524479353327e-86
1.215455154317e-87
3.6123515173459e-87
2.8494883212601e-88
7.2421221091029e-88
2.0591691119996e-88
0
0
0
0
0
0
0
0
0
0
0
0
0
0
0
0
0
0
6.0622340085734e-36
2.8888949241695e-36
1.1196539166462e-36
4.9425800919271e-36
2.1495859010125e-37
9.0469532654499e-37
7.1219097066314e-36
0
1.295003081409e-36
5.8269066252224e-36
2.35456035247e-37
1.0595470461621e-36
4.2810196099383e-38
1.9264583914761e-37
7.7836720884152e-39
3.5026524010968e-38
5.0325745723091e-38
0
9.15013558978e-39
4.1175610133505e-38
1.6636610170106e-39
7.4864745735375e-39
3.024838223689e-40
1.3611771980905e-39
5.4997062404329e-41
2.4748677158464e-40
3.1549545039572e-40
0
5.736296142411e-41
2.5813292839615e-40
1.0430104951798e-41
4.6934352508312e-41
1.8983879545629e-42
8.5380574327133e-42
3.6292485265271e-43
1.5945010207597e-42
2.137830764638e-43
4.9012816815425e-43
4.5010701990119e-43
1.1704504026294e-42
7.6665362550452e-43
2.1497945145209e-42
9.9762438063604e-42
0
5.8916690770043e-42
1.003010610413e-41
5.1079415459006e-42
5.8485915670325e-42
6.5892319712602e-42
0
2.6143249164587e-42
4.7416601927963e-42
6.0235588346585e-43
0
6.5733957457184e-43
0
2.8926661840875e-44
6.3987553099268e-43
2.7920739207644e-44
0
1.925275966451e-45
2.6469697214612e-44
8.5539901292942e-46
1.2534537328897e-45
3.9078961854335e-46
7.9812610176624e-46
7.4797684053142e-47
3.193495060932e-46
1.7953892546067e-48
7.3676439950581e-47
1.681238560866e-48
0
6.0031739871886e-49
1.2356278561311e-48
3.7853422006022e-50
9.5338712720751e-49
3.3057396765045e-50
5.6493662954425e-51
3.2882461912534e-51
0
8.8015827047371e-52
0
8.8795754945193e-52
0
1.0441461944862e-52
7.8506370627617e-52
3.8415908934099e-53
6.6081833942401e-53
7.3062805369161e-54
0
7.3179316519924e-54
0
1.0412136338737e-54
6.2789865458442e-54
6.66712593375e-55
0
9.2176533425347e-56
5.7462055960981e-55
5.9578838364395e-56
0
1.4224172359737e-57
5.8159577479234e-56
1.4225472997171e-57
0
8.8042610852536e-58
0
1.2257123070284e-58
7.5787730068206e-58
7.5631709210369e-59
0
1.3751983678728e-59
6.1880557280319e-59
1.9154576444561e-60
1.1836685411404e-59
1.1831709994065e-60
0
1.6253866077017e-61
1.0206382145502e-60
1.0389340484836e-61
0
3.434997627574e-63
1.0045862455751e-61
3.4350392578986e-63
0
4.6974282417495e-64
0
4.6955213939538e-64
0
2.96564121561e-64
0
5.0748986054336e-65
2.4581519299636e-64
9.2270983822828e-66
4.1521898665898e-65
1.5916911218712e-66
0
1.5911848504368e-66
0
5.2633334565101e-68
1.5385515926938e-66
5.2616595028992e-68
0
2.1467479728098e-69
5.0469849770332e-68
1.9823087294551e-69
0
4.3720897953846e-70
0
1.6030701193805e-70
0
1.2401261300721e-70
0
1.7590373083824e-71
0
1.7583639786287e-71
0
3.2753260420041e-73
1.7256107212114e-71
2.2182801070349e-73
0
1.5993373886219e-73
0
6.0971393378806e-75
1.5383659974452e-73
5.4836344787876e-75
0
8.3688173477771e-76
0
2.7937200821855e-76
0
2.1506166906548e-76
0
2.5225035330643e-77
0
2.5213068459464e-77
0
2.3289057858468e-78
0
1.4968111421848e-78
0
0
0
0
0
0
0
0
0
0
0
0
0
0
0
0
4.1455192130357e-23
2.0794629021036e-23
1.5303417427721e-21
7.8471467436876e-22
2.6374274216826e-20
1.392728682075e-20
2.7226358828515e-19
1.495716597773e-19
1.8353110418521e-18
1.0528994473415e-18
9.6625088267777e-18
5.5647481588294e-18
6.5428787711208e-17
3.603730164295e-17
5.8541679835684e-16
3.1255733941309e-16
3.5936864626426e-15
2.0388539885159e-15
1.3620569028009e-14
8.7999542079409e-15
3.0458962774454e-14
2.3126351649766e-14
4.7015627851568e-14
4.2127779734129e-14
7.0587716695655e-14
6.8591877929269e-14
1.1109145710913e-13
1.1233520466318e-13
1.5303794076411e-13
1.7179169849027e-13
1.6224343963118e-13
2.0404323900345e-13
1.5981668358127e-13
2.0261729368406e-13
1.3992600376062e-13
1.8518285415628e-13
1.0144360355898e-13
1.4379055264437e-13
5.6456490676461e-14
8.7411809452334e-14
2.2329986639856e-14
3.9127236146453e-14
6.1881442974609e-15
1.2865173386129e-14
1.4828639587793e-15
3.4243880927697e-15
3.9678838286506e-16
8.9264647591406e-16
1.2460453936324e-16
2.5895621681839e-16
4.3165518078988e-17
8.414495889465e-17
1.5425001172656e-17
2.9205507595785e-17
5.4742553725048e-18
1.0331820347102e-17
1.909944479741e-18
3.6334730855681e-18
6.5673010522526e-19
1.2625280563842e-18
2.2213363615439e-19
4.3293557134613e-19
7.2949414809092e-20
1.4536660421221e-19
2.285737652845e-20
4.7080097984091e-20
6.7684513107452e-21
1.4508940392586e-20
1.9039286409036e-21
4.2407166442615e-21
5.1670615369826e-22
1.1856775710381e-21
1.3736558537446e-22
3.2155193105608e-22
3.6065766348086e-23
8.5547064293707e-23
9.368718463094e-24
2.2453074925849e-23
2.4065475078948e-24
5.8230538117371e-24
6.1118277307158e-25
1.4926334603641e-24
1.5358163327324e-25
3.7835834158286e-25
3.8227973822634e-26
9.4928779997271e-26
9.4344805466658e-27
2.3597642529082e-26
2.3102581347058e-27
5.8167752461212e-27
5.6162859322282e-28
1.4227530169966e-27
1.35610328493e-28
3.4550200114007e-28
3.2537349915371e-29
8.3340555904596e-29
7.7605281604959e-30
1.997729931045e-29
1.8406709892054e-30
4.7606075648194e-30
4.3428697437957e-31
1.1282005151765e-30
1.0195757559924e-31
2.6597829784772e-31
2.3824238188583e-32
6.2397421532803e-32
5.5421735019641e-33
1.4570043035547e-32
1.2838039152675e-33
3.3871319692316e-33
2.9618484791239e-34
7.8410665761832e-34
6.8069674067869e-35
1.8079102236932e-34
1.5586411425952e-35
4.1525742197113e-35
3.5563920796783e-36
9.5032206046757e-36
8.0873939518296e-37
2.1672333678238e-36
1.8331710220045e-37
4.9259013513201e-37
4.1423681527749e-38
1.1160154314348e-37
9.3324993267703e-39
2.5206610746217e-38
2.0965233446427e-39
5.6763630850844e-39
4.6967750303022e-40
1.2746347062286e-39
1.0494003716763e-40
2.8543457339931e-40
2.3386466064141e-41
6.3749288131224e-41
5.1988598862983e-42
1.4201433345377e-41
1.1529428876171e-42
3.1558397316876e-42
2.5509250863047e-43
6.9961536331123e-43
5.6313182400181e-44
1.5473876804664e-43
1.2404390377404e-44
3.414807928923e-44
2.7266081432872e-45
7.5195361529969e-45
5.9810781501813e-46
1.6523504689e-45
1.3093984310593e-46
3.6234886760234e-46
2.8610445604766e-47
7.9303290660474e-47
6.2396695631009e-48
1.7322866289002e-47
1.3583300802435e-48
3.776904985513e-48
2.9517350086796e-49
8.2198246716072e-49
6.4032186507194e-50
1.7857499344915e-49
1.3867172124441e-50
3.8728508798287e-50
2.9982298873592e-51
8.3851822025455e-51
6.472133108773e-52
1.8125272263594e-51
1.3949310081564e-52
3.9116933201807e-52
3.0019079401144e-53
8.4288913380368e-53
6.4505580718839e-54
1.8135017354236e-53
1.3841002709386e-54
3.8960382677816e-54
2.9656893664514e-55
8.3579682777921e-55
6.3452506867414e-56
1.7904966214146e-55
1.3571516990276e-56
3.8295239539987e-56
2.8605762812076e-57
8.2047264579883e-57
6.9981863931022e-58
1.68551622422e-57
5.1708127851806e-58
0
0
0
0
0
0
0
0
0
0
0
0
3.8712168479896e-23
1.923522808282e-23
2.0424840320164e-21
1.0137154836332e-21
4.9345017276866e-20
2.468548694283e-20
7.4664666962904e-19
3.7927437288152e-19
7.7842601712229e-18
4.0606215596418e-18
5.6545354583897e-17
3.0898588691623e-17
2.7759127844986e-16
1.6034873747922e-16
1.0860793420294e-15
6.3180688285769e-16
4.8164105329346e-15
2.5644207306584e-15
3.5681310199184e-14
1.6687028420844e-14
3.1271088728196e-13
1.3512092567643e-13
1.1291284038038e-12
7.108531481629e-13
2.0282015795886e-12
1.846735149786e-12
2.9832821520963e-12
3.4976083773703e-12
4.672946133594e-12
5.5775860322736e-12
6.4184304979353e-12
8.3223967042413e-12
6.7443787027733e-12
9.7834037568638e-12
6.5758739957899e-12
9.6732998823173e-12
5.5860777847782e-12
8.7832897309093e-12
3.7021962820494e-12
6.6244386656924e-12
1.6641217502972e-12
3.6617062041391e-12
4.5817319858161e-13
1.2834592021255e-12
9.6701066033993e-14
2.7992754034655e-13
2.4130904751251e-14
5.6751552516009e-14
7.7361100394322e-15
1.5186923157711e-14
2.9096765233108e-15
5.1184409694328e-15
1.1523840884769e-15
1.9394120139239e-15
4.5338337817878e-16
7.6037280978036e-16
1.7470733608679e-16
2.9676159989704e-16
6.606047004608e-17
1.1403994378701e-16
2.4582576665268e-17
4.3119142320126e-17
8.9822446164241e-18
1.6036484881953e-17
3.1901127595636e-18
5.8343859962264e-18
1.083229840749e-18
2.0505824577643e-18
3.4631233006547e-19
6.8532493899074e-19
1.0378992652547e-19
2.1549698070274e-19
2.9466885704077e-20
6.384713073007e-20
8.0744150812453e-21
1.8052053107987e-20
2.1693175319299e-21
4.9496060823909e-21
5.7568099330282e-22
1.3314804057635e-21
1.5107722946237e-22
3.5327247469389e-22
3.9182601980819e-23
9.2570897058255e-23
1.0043127715617e-23
2.3963829539883e-23
2.5463309927745e-24
6.1322827071331e-24
6.3933863238098e-25
1.552750865178e-24
1.5912458729242e-25
3.8943838532644e-25
3.9286756725524e-26
9.6828834373302e-26
9.6273005036625e-27
2.3883411057162e-26
2.3427648127656e-27
5.8473849553808e-27
5.6639038358508e-28
1.4217360548059e-27
1.3609578751517e-28
3.4345045479354e-28
3.2514370795819e-29
8.2465600620627e-29
7.7259465498715e-30
1.9688054978211e-29
1.8264324934204e-30
4.6751540549582e-30
4.2968401130309e-31
1.1045376526974e-30
1.0062274584328e-31
2.5970081839351e-31
2.3460821473743e-32
6.0782819273355e-32
5.4472961033628e-33
1.4164481150796e-32
1.259774961225e-33
3.2871723320204e-33
2.9023937295705e-34
7.5985176841619e-34
6.6625810763546e-35
1.7498315973908e-34
1.5241154469553e-35
4.0150906916908e-35
3.474914729492e-36
9.1810407423443e-36
7.8973059024274e-37
2.0924115104125e-36
1.7892709517681e-37
4.7535491715469e-37
4.0419040009479e-38
1.0766088231502e-37
9.1044952456324e-39
2.4311787645158e-38
2.0451734862535e-39
5.4744657002513e-39
4.5819529163927e-40
1.2293527500903e-39
1.0238979176642e-40
2.7533580083327e-40
2.2823667678424e-41
6.1509092629143e-41
5.0754210431165e-42
1.3707028434959e-41
1.1260296441583e-42
3.0472601652986e-42
2.4925861408235e-43
6.7588216502301e-43
5.5055791424437e-44
1.4957497745564e-43
1.213491395507e-44
3.3029582689278e-44
2.6691822397419e-45
7.2783274995478e-45
5.8594015236135e-46
1.600557446995e-45
1.2837671520711e-46
3.5127530114852e-46
2.8073757709604e-47
7.6945804231402e-47
6.1279947462951e-48
1.6823115657666e-47
1.3352452262857e-48
3.6714211264007e-48
2.9043491659427e-49
7.998147288345e-49
6.306686108381e-50
1.739371011386e-49
1.3672150516922e-50
3.7762612838889e-50
2.9591945784337e-51
8.1849748106625e-51
6.3948215246042e-52
1.7712338888169e-51
1.3798051853461e-52
3.8269677979324e-52
2.9727616639908e-53
8.2560014659433e-53
6.394906180426e-54
1.7784624960183e-53
1.3750806038071e-54
3.8245970086499e-54
2.9137134838379e-55
8.2381484881261e-55
7.1678587300344e-56
1.7015096642313e-55
5.2520289030582e-56
0
0
0
0
0
0
0
0
0
0
1.6618518245727e-23
8.1527885428542e-24
1.2343015009178e-21
5.9924851700833e-22
3.7304948224322e-20
1.8097283039803e-20
6.7156495847057e-19
3.2701554352082e-19
8.4547077952796e-18
4.1417131517524e-18
8.080551105076e-17
3.9996097267446e-17
6.0015775191527e-16
3.0392317316543e-16
3.3454001832241e-15
1.7881699493601e-15
1.2555188907016e-14
7.3008627323898e-15
3.5054243307282e-14
2.06947773209e-14
1.1547563474445e-13
5.7828640825457e-14
7.0019373325791e-13
2.3728864346854e-13
9.5415967961579e-12
2.4601449470049e-12
6.8537239815829e-11
3.094494636736e-11
1.2198638560056e-10
1.1835651773367e-10
1.5911941068166e-10
2.0261170245295e-10
1.8364319001725e-10
2.553495568913e-10
1.8475835092179e-10
2.7037199926918e-10
1.7562663788774e-10
2.6380424661324e-10
1.467254361025e-10
2.3685594286414e-10
9.489654251722e-11
1.7708575347759e-10
4.0414210166227e-11
9.6891876205267e-11
9.3449737654643e-12
3.2856369432047e-11
1.3227820285659e-12
6.308576633073e-12
2.4060350943286e-13
9.3843918358435e-13
6.8976313085744e-14
1.7625613036537e-13
2.8035339499066e-14
4.6839938663284e-14
1.2273293768591e-14
1.8225748952134e-14
5.335323665031e-15
7.8345169877081e-15
2.2801272304187e-15
3.4006022402784e-15
9.5277845862474e-16
1.4554386120691e-15
3.8967606655262e-16
6.1003336660688e-16
1.5628810718803e-16
2.5049736812448e-16
6.1130109289368e-17
1.0063873462257e-16
2.2930992279482e-17
3.9156675591986e-17
8.0690655137566e-18
1.4480418596236e-17
2.624360170003e-18
4.9961894669833e-18
7.9131947595037e-19
1.5968943827614e-18
2.2563835256403e-19
4.7718916124834e-19
6.2300338210734e-20
1.3596479738597e-19
1.6914141048119e-20
3.7639087773596e-20
4.5384939787885e-21
1.0235978585957e-20
1.2034339972005e-21
2.7455834579714e-21
3.1512321937401e-22
7.2691915165759e-22
8.1516672265365e-23
1.9003432291326e-22
2.0854449793011e-23
4.9093098905897e-23
5.2825479734521e-24
1.2546407230262e-23
1.3261223778136e-24
3.1752246249144e-24
3.3016072199866e-25
7.9643917199352e-25
8.1568143290931e-26
1.9813080636999e-25
2.0007481859617e-26
4.8913224397141e-26
4.8746495139473e-27
1.1989462652047e-26
1.1802008633587e-27
2.9192622443108e-27
2.8404931026677e-28
7.0636066208231e-28
6.7983592385222e-29
1.6991100984968e-28
1.6185283719613e-29
4.0644691563062e-29
3.8341014474987e-30
9.6717575104689e-30
9.0395058206153e-31
2.290057059655e-30
2.1216075263437e-31
5.3967988572638e-31
4.9581302773515e-32
1.2661224708934e-31
1.1539561751501e-32
2.9577208753751e-32
2.6752147903619e-33
6.8812267563436e-33
6.1787354322672e-34
1.594705775229e-33
1.4219376446146e-34
3.6819198110544e-34
3.2611081571711e-35
8.4706164361994e-35
7.4544047647864e-36
1.9420743062586e-35
1.6985541635408e-36
4.4379845090495e-36
3.8584822836148e-37
1.010950704028e-36
8.7392287004084e-38
2.2958847760788e-37
1.9737631878514e-38
5.1986978855749e-38
4.4455499718802e-39
1.1738402872608e-38
9.9863124107814e-40
2.6432379896405e-39
2.2375482472117e-40
5.9363128654876e-40
5.0010774618526e-41
1.3298073383862e-40
1.1150979736722e-41
2.9715851819963e-41
2.4805803758041e-42
6.6244422221992e-42
5.5057349683932e-43
1.4733451428196e-42
1.2193499336477e-43
3.2695233099453e-43
2.6947617201564e-44
7.2396625045664e-44
5.9431662895609e-45
1.5996828525237e-44
1.308115795152e-45
3.5274230919148e-45
2.8736204938329e-46
7.7627299295459e-46
6.3007256721089e-47
1.7050167839578e-46
1.3789599700874e-47
3.7378597895045e-47
3.0125461132714e-48
8.1793615981471e-48
6.5698707328033e-49
1.7866471523822e-48
1.4303433120424e-49
3.8958406477301e-49
3.1088701211923e-50
8.4805840927834e-50
6.7462308861666e-51
1.8430238707551e-50
1.4616246269927e-51
3.9988379284683e-51
3.1616003695278e-52
8.6628200485481e-52
6.8353398306985e-53
1.8733379124792e-52
1.4561674698786e-53
4.0572428293784e-53
3.602631856496e-54
8.4255874837442e-54
2.6172721262253e-54
0
0
0
0
0
0
0
0
0
0
3.2702934038252e-22
1.5275599703964e-22
1.6331087224402e-20
7.6307467041204e-21
3.8445636512724e-19
1.8039497408775e-19
5.7258761521605e-18
2.7038779952979e-18
6.1122070037955e-17
2.9045889945174e-17
5.0569370672923e-16
2.4127913432023e-16
3.4242023441077e-15
1.640927678704e-15
1.9140567050928e-14
9.3273047600703e-15
8.2826496062245e-14
4.3272793087769e-14
2.2619837096819e-13
1.3602687551836e-13
4.3804116139399e-13
2.6638381896364e-13
1.267982562807e-12
5.1050500339541e-13
1.3611014957401e-11
2.9401986176304e-12
2.1167233005923e-10
4.2412753178628e-11
3.6999108831818e-09
1.0155666178546e-09
5.0994868341406e-09
5.3409333084251e-09
4.5084256887734e-09
6.7571257391614e-09
3.979037436927e-09
6.163745317291e-09
3.5246491925186e-09
5.5504461008148e-09
2.8347422466758e-09
4.7199191797269e-09
1.8407440666909e-09
3.4676728631346e-09
8.1291037909031e-10
1.929364975984e-09
1.9849064105473e-10
6.8802926386504e-10
2.6576239163109e-11
1.3862080057031e-10
4.2833284105061e-12
2.0415207403137e-11
8.1385404640382e-13
3.6277430908352e-12
1.936517737651e-13
6.6876823592506e-13
6.9761016698998e-14
1.4159067771098e-13
3.2298597362677e-14
4.5478151111442e-14
1.5517574677857e-14
2.0390994575753e-14
7.3571241247743e-15
9.7202876459496e-15
3.403457132088e-15
4.6138940926478e-15
1.5352781852125e-15
2.1478713497439e-15
6.7343097812774e-16
9.7537536250366e-16
2.8334265362587e-16
4.2817704485671e-16
1.1173428223172e-16
1.7846199879752e-16
4.0395538913776e-17
6.9075859529128e-17
1.3285180585507e-17
2.4447512262246e-17
4.0268322013645e-18
7.9162404885153e-18
1.155678695599e-18
2.3861792780745e-18
3.2209208752676e-19
6.8607416098739e-19
8.8381869544602e-20
1.9188597785858e-19
2.3962530511288e-20
5.2741854753324e-20
6.4157380700604e-21
1.4293458989099e-20
1.695454043354e-21
3.821631996513e-21
4.4249455327033e-22
1.0085147711979e-21
1.1418903580521e-22
2.6292451698687e-22
2.9170169678369e-23
6.7792362822819e-23
7.3832757208801e-24
1.7305310024669e-23
1.8529462727427e-24
4.3771910719411e-24
4.6135779378577e-25
1.097821909817e-24
1.1402591876228e-25
2.7317958103682e-25
2.7987709425066e-26
6.747991758484e-26
6.825206695979e-27
1.6554523578433e-26
1.6543083438898e-27
4.0351454256763e-27
3.9867611169922e-28
9.7761490150324e-28
9.5557275323044e-29
2.3550063737125e-28
2.2786179431774e-29
5.6424480783024e-29
5.4070098905733e-30
1.344985758159e-29
1.277100061064e-30
3.1904740381455e-30
3.003105726577e-31
7.5332706407097e-31
7.0320608101523e-32
1.7709155861276e-31
1.6399953559417e-32
4.1455848765073e-32
3.8100121771442e-33
9.6655941957504e-33
8.8186930964902e-34
2.2449223569937e-33
2.0339569051802e-34
5.1948621180858e-34
4.6751986654836e-35
1.1978757475407e-34
1.0711156705056e-35
2.7528043060738e-35
2.4462689868772e-36
6.305529401324e-36
5.5699824822241e-37
1.4398049441633e-36
1.264539674693e-37
3.277718248027e-37
2.8627574693692e-38
7.4399907501255e-38
6.4632659667426e-39
1.6840314813826e-38
1.4553734110741e-39
3.801427727591e-39
3.268806257697e-40
8.5585728605973e-40
7.3237187597745e-41
1.921990603285e-40
1.6369500005366e-41
4.3055802362685e-41
3.6503312315355e-42
9.6222363055812e-42
8.1218032831182e-43
2.1454378207919e-42
1.8031204242863e-43
4.7728910497821e-43
3.9946288108526e-44
1.0595010684583e-43
8.8314826755095e-45
2.3469444215917e-44
1.948593104465e-45
5.1881400686971e-45
4.291042080333e-46
1.1445975542743e-45
9.4315076428479e-47
2.5202858195497e-46
2.0691780979699e-47
5.5389215407873e-47
4.5314142116375e-48
1.2150681904659e-47
9.906235772413e-49
2.6607052313148e-48
2.1619288587682e-49
5.8161202168655e-49
4.7103467649357e-50
1.2691964821371e-49
1.0245312045525e-50
2.7650903844443e-50
2.2271099321201e-51
6.0129287889693e-51
4.7700981325568e-52
1.3094130125643e-51
1.1868980178473e-52
2.734052685005e-52
8.5474694761713e-53
0
0
0
0
0
0
0
0
9.6296497239573e-37
2.535772309211e-37
2.9807458977723e-21
1.316524412327e-21
1.2578083790602e-19
5.6011226730623e-20
2.5792108332138e-18
1.1595665203672e-18
3.4004232452415e-17
1.5452206041304e-17
3.2268080643692e-16
1.4823802405935e-16
2.3535437057379e-15
1.090079158283e-15
1.3937502065501e-14
6.466022019987e-15
7.0106496709008e-14
3.2418709689795e-14
3.0302662070369e-13
1.4253064871587e-13
9.7971680993779e-13
5.2142238782081e-13
1.8997449540523e-12
1.265500806408e-12
3.5971345741793e-12
2.0935899766557e-12
1.8316772545593e-11
6.2370795638056e-12
2.459722496129e-10
5.5313451897885e-11
3.9223020446704e-09
6.4992400822314e-10
6.0823316076484e-08
1.3260623194988e-08
1.0280886055293e-07
8.3556863410241e-08
8.1957824341914e-08
1.2554449783685e-07
6.2741335570155e-08
1.0462733917939e-07
4.779348948603e-08
8.2645457604767e-08
3.147217872269e-08
5.9546870747307e-08
1.5009917407593e-08
3.4356955298537e-08
4.1859744574577e-09
1.3407966006377e-08
6.1974564801901e-10
3.0374710067254e-09
9.263850905207e-11
4.5446783204449e-10
1.7106844091027e-11
7.7770894603197e-11
3.2702888782569e-12
1.4674422721925e-11
6.4429995807148e-13
2.7651582776315e-12
1.6736732193347e-13
5.2314771625672e-13
6.8185979891886e-14
1.2055176072772e-13
3.4487430782795e-14
4.4157569470449e-14
1.7937396076155e-14
2.1658081724304e-14
9.2424762623533e-15
1.1219218062858e-14
4.6471484591996e-15
5.8130332856411e-15
2.2417932152162e-15
2.9354130756382e-15
1.0135219633843e-15
1.4101331579599e-15
4.1842634185679e-16
6.280755430897e-16
1.5485290350359e-16
2.535292167269e-16
5.1376774179436e-17
9.1745657930499e-17
1.5625388203806e-17
3.0012404755531e-17
4.5050213348017e-18
9.1016397832869e-18
1.2651755606407e-18
2.6347058578668e-18
3.5041243025949e-19
7.4322011467289e-19
9.5898082254192e-20
2.0620869369479e-19
2.5900545482707e-20
5.6403421327829e-20
6.9007683782289e-21
1.521333271262e-20
1.8152932191521e-21
4.0484796934344e-21
4.7209152731777e-22
1.0640620936009e-21
1.2151821600159e-22
2.7654377193361e-22
3.0986896963541e-23
7.1142982817109e-23
7.8332220734322e-24
1.8131616477198e-23
1.9642182140235e-24
4.581217633245e-24
4.8883300554374e-25
1.1482305946472e-24
1.2079922685396e-25
2.8563775131668e-25
2.965447464736e-26
7.0558613110059e-26
7.2345073577261e-27
1.7314907112042e-26
1.7545827790049e-27
4.2227439110156e-27
4.2317904341607e-28
1.0238259881974e-27
1.0152818771515e-28
2.4686107778575e-28
2.4236908140797e-29
5.9210685287761e-29
5.7584048983567e-30
1.4131350818272e-29
1.3619443427045e-30
3.3566726899531e-30
3.2072949731868e-31
7.9373074004651e-31
7.5218429988816e-32
1.8688134196746e-31
1.7570851522832e-32
4.3819777377418e-32
4.0889937267968e-33
1.0234409521515e-32
9.4811746893826e-34
2.38130663902e-33
2.1907480630524e-34
5.5207029360023e-34
5.0450534282424e-35
1.2754462065716e-34
1.1580756232239e-35
2.9368163583182e-35
2.6500696526294e-36
6.740510848984e-36
6.046098167587e-37
1.5422733934799e-36
1.3754225071029e-37
3.518281195934e-37
3.1202039067256e-38
8.0028677215364e-38
7.0592122212792e-39
1.8153039061814e-38
1.5929208539665e-39
4.1065960039294e-39
3.5853627046789e-40
9.2657734728853e-40
8.0502113512207e-41
2.0853767708277e-40
1.8032226234349e-41
4.681928233297e-41
4.0298627068794e-42
1.0486602526357e-41
8.9858555115562e-43
2.3433952192659e-42
1.9993319776049e-43
5.2249998402943e-43
4.4390843192222e-44
1.1624785721266e-43
9.8358147815793e-45
2.5808821381776e-44
2.1750040096913e-45
5.7182258777495e-45
4.8002712310077e-46
1.2644119366765e-45
1.0574252864752e-46
2.7904430388566e-46
2.3250541304188e-47
6.1466312921376e-47
5.1031233455709e-48
1.3514557021813e-47
1.1181003692724e-48
2.9661071565449e-48
2.4454059608676e-49
6.4985947670136e-49
5.3447545131945e-50
1.4210635329557e-49
1.1509187924714e-50
3.1115562215051e-50
2.880120682539e-51
6.5322875888435e-51
2.0553430564118e-51
0
0
0
0
0
0
0
0
2.3035683352016e-37
2.322039740055e-38
1.6699073187241e-20
6.9608833422021e-21
6.4750133642077e-19
2.7364385647039e-19
1.2254100987611e-17
5.2473096158369e-18
1.4931796067285e-16
6.4819570548122e-17
1.3056240198076e-15
5.7530357210787e-16
8.6809914908416e-15
3.8827706485689e-15
4.5945319446615e-14
2.0742031757323e-14
2.0425130872014e-13
9.1749622994007e-14
8.15009440487e-13
3.6123239884221e-13
2.9344946937773e-12
1.3728222870291e-12
8.3821633835451e-12
4.984282663703e-12
1.9822670873102e-11
1.3862969736021e-11
5.927054227753e-11
3.2013402330804e-11
3.4253125311176e-10
1.2731587465529e-10
3.6378169700582e-09
8.3465193747792e-10
4.9595677153084e-08
9.203361028227e-09
4.9647755356826e-07
1.023583521531e-07
1.2493148145309e-06
7.9760920362369e-07
1.0506232376983e-06
1.5366598839941e-06
7.7442106518037e-07
1.312727140491e-06
5.2660005110818e-07
9.7386030149079e-07
2.7572637700204e-07
5.9805926852329e-07
9.1018724339768e-08
2.6297639882638e-07
1.5768130815616e-08
6.9452877173013e-08
2.1526564861047e-09
1.1009080252118e-08
3.850969933616e-10
1.7728674251054e-09
7.3595652031428e-11
3.3099578464377e-10
1.3884979183342e-11
6.2502094315349e-11
2.6334258365908e-12
1.1780653359622e-11
5.3771661418245e-13
2.2180692372107e-12
1.5233595541915e-13
4.3140001535425e-13
6.8664251660262e-14
1.0813615093512e-13
3.7891172790132e-14
4.4718601006107e-14
2.1591255063071e-14
2.4198686087608e-14
1.2048092852106e-14
1.3730871017879e-14
6.3505104109922e-15
7.6292367061781e-15
3.0599842541587e-15
3.9711564320184e-15
1.3090010219882e-15
1.8693679685782e-15
4.8928997024796e-16
7.7618902941469e-16
1.6147925872265e-16
2.8275502832539e-16
4.8813524344575e-17
9.2224952994235e-17
1.4097854343761e-17
2.7939206706355e-17
3.9920865303401e-18
8.1276682209796e-18
1.1166747343538e-18
2.3126283556918e-18
3.0829347426453e-19
6.4757161344955e-19
8.389612572245e-20
1.786232290522e-19
2.2511441976094e-20
4.8552078126381e-20
5.9635436248471e-21
1.3016598487553e-20
1.5618140451804e-21
3.446258884591e-21
4.0480712128714e-22
9.0214619452368e-22
1.0392666762452e-22
2.3373241463072e-22
2.6446574686202e-23
5.9983588902316e-23
6.6748519082678e-24
1.5258876126971e-23
1.6717903805986e-24
3.8499634408213e-24
4.1572243160591e-25
9.6398905298784e-25
1.0268282808328e-25
2.3965198015602e-25
2.5202106608943e-26
5.9179766278822e-26
6.1485942856219e-27
1.4521771181234e-26
1.491611640949e-27
3.5422111216102e-27
3.5991926325904e-28
8.5916775005818e-28
8.6405484302133e-29
2.0728024456046e-28
2.064297168662e-29
4.9754358215121e-29
4.909045119537e-30
1.1885154864389e-29
1.1622706964145e-30
2.8260364622186e-30
2.7402345186561e-31
6.6902289560781e-31
6.4345317125494e-32
1.5771711293563e-31
1.5051091407996e-32
3.7031345894648e-32
3.5075910635346e-33
8.6613532442808e-33
8.1452307360002e-34
2.0183448144259e-33
1.8849974137952e-34
4.6866403112158e-34
4.3479723477105e-35
1.0845354295684e-34
9.9973233035302e-36
2.5014810585701e-35
2.2916633782095e-36
5.7514075969842e-36
5.2376242983023e-37
1.3183281293718e-36
1.1936526322566e-37
3.0129468658023e-37
2.712832097049e-38
6.8662802198948e-38