/*--------------------------------*- C++ -*----------------------------------*\
  =========                 |
  \\      /  F ield         | OpenFOAM: The Open Source CFD Toolbox
   \\    /   O peration     | Website:  https://openfoam.org
    \\  /    A nd           | Version:  7
     \\/     M anipulation  |
\*---------------------------------------------------------------------------*/
FoamFile
{
    version     2.0;
    format      ascii;
    class       volScalarField;
    location    "0.9";
    object      alpha.water;
}
// * * * * * * * * * * * * * * * * * * * * * * * * * * * * * * * * * * * * * //

dimensions      [0 0 0 0 0 0 0];

internalField   nonuniform List<scalar> 
6000
(
0
0
0
0
0
0
0
0
0
0
0
0
0
0
0
0
0
0
0
0
0
0
0
0
0
0
0
0
0
0
0
0
0
0
0
0
0
0
0
0
0
0
0
0
0
0
0
0
0
0
0
0
0
0
0
0
0
0
0
0
0
0
0
0
0
0
0
0
0
0
0
0
0
0
0
0
0
0
0
0
0
0
0
0
0
0
0
0
0
0
0
0
0
0
0
0
0
0
0
0
0
0
0
0
0
0
0
0
0
0
0
0
0
0
0
0
0
0
0
0
0
0
0
0
0
0
0
0
0
0
0
0
0
0
0
0
0
0
0
0
0
0
0
0
0
0
0
0
0
0
0
0
0
0
0
0
0
0
0
0
0
0
0
0
0
0
0
0
0
0
0
0
0
0
0
0
0
0
0
0
0
0
0
0
0
0
0
0
0
0
0
0
0
0
0
0
0
0
0
0
0
0
0
0
0
0
0
0
0
0
0
0
0
0
0
0
0
0
0
0
0
0
0
0
0
0
0
0
0
0
0
0
0
0
0
0
0
0
0
0
0
0
0
0
0
0
0
0
0
0
0
0
0
0
0
0
0
0
0
0
0
0
0
0
0
0
0
0
0
0
0
0
0
0
0
0
0
0
0
0
0
0
0
0
0
0
0
0
0
0
0
0
0
0
0
0
0
0
0
0
0
0
0
0
0
0
0
0
0
0
0
0
0
0
0
0
0
1.2405940571383e-48
8.5069280664234e-48
4.5495399824007e-47
2.1240313217966e-46
6.9982378617139e-46
4.8934615703166e-45
2.0943775878913e-44
9.0729472928344e-44
3.7013463649647e-43
3.3598603946282e-42
4.6617272653063e-41
4.0901718938444e-40
7.8927256530182e-40
7.4399727863983e-40
8.3182997003593e-40
8.6526587442635e-40
6.6724250114677e-40
3.6058236146218e-40
9.8804874948407e-41
1.2061598675891e-41
6.3559830526507e-43
2.1553065272298e-43
2.1600108324206e-44
5.6315470218655e-45
1.9507594130401e-45
1.7951551559097e-46
2.9255639963113e-47
1.1502105826378e-47
1.7021758128821e-48
2.7229231658981e-49
4.8036127759994e-50
1.7802119214344e-50
3.8841066617022e-51
3.3305792411341e-52
6.8675891745215e-53
1.3198096462012e-53
3.6543077025304e-54
4.216173278037e-55
7.5143378346362e-56
2.6625723173342e-56
2.9519114168863e-57
9.7087918447797e-58
1.1056133310769e-58
1.968283203752e-59
6.9365954190413e-60
7.7375314343527e-61
2.4194494509838e-61
2.8695619545929e-62
5.138326177296e-63
1.8034470373664e-63
2.0181975590992e-64
6.276017410723e-65
7.4774803738125e-66
1.3318245834388e-66
5.8084267872219e-67
5.507652578893e-68
1.6520157105034e-68
1.979368971735e-69
3.5568256354223e-70
1.155710560391e-70
1.3917009599956e-71
1.6565541050517e-72
4.5323495330233e-73
8.8396070933983e-74
1.6502172896319e-74
7.0216053755518e-75
1.7844996246262e-75
3.8560594257797e-76
6.5494613555104e-77
5.7951950635303e-78
9.8844343720015e-79
4.1183283700613e-79
9.1125685173928e-80
8.2289518437212e-81
1.4088930292254e-81
5.8296903441306e-82
1.4792565517232e-82
3.1770623572461e-83
5.9465301600922e-84
4.8956917030072e-85
1.8339188001494e-85
4.0290312407482e-86
1.5352728356232e-86
0
0
0
0
0
0
0
0
0
1.2478316342548e-33
0
0
1.6031625383065e-33
-5.5955696160522e-48
5.5271478752605e-74
5.3455294201844e-52
0
1.1323292800141e-35
9.4988884245135e-48
3.4465334346198e-47
1.6175285538511e-46
5.7143766298022e-46
7.0986476887959e-38
2.3205680703211e-44
7.0268243255152e-44
2.9350272079497e-43
2.4538038630562e-42
2.3596559128494e-41
4.2756615292762e-41
6.6389009636504e-41
2.3020372658955e-39
8.5279498504867e-40
8.7222957558325e-40
1.5259253604889e-39
3.6468955599337e-40
8.8019684009327e-40
1.5957558821435e-41
3.3965053334378e-42
1.1483745605823e-42
1.3003271771746e-43
5.3488841928571e-44
2.9897577039188e-44
1.0576552374653e-45
1.9887120282312e-46
1.1621942026405e-46
7.6301560199097e-48
1.5468963306653e-48
3.0011081926543e-49
6.2903704977274e-48
2.6427981247989e-49
2.303694096825e-51
4.5255395212246e-52
8.4260527263716e-53
1.1110788616618e-50
3.1337858511987e-54
5.8910772992352e-55
1.3544447353085e-52
2.2105042050168e-56
1.0984911027762e-53
8.2331637218868e-58
2.6809532967981e-58
1.764706296168e-55
5.8022919188898e-60
1.5140835438863e-56
2.1504247586702e-61
4.0445356875214e-62
2.3696143801439e-58
1.5154631427583e-63
1.906592112775e-59
5.6119158065302e-65
1.0544790676824e-65
9.3204934479908e-61
6.0928037723973e-65
5.4144572377359e-62
1.4885064148711e-68
2.8005103715309e-69
2.3263767794281e-63
1.5365820888069e-67
1.9131516865824e-71
5.0811821566321e-69
6.9418566638807e-73
4.9854089154843e-68
4.4850384729549e-67
7.0676546061513e-68
8.9530567498748e-69
2.5932962512605e-68
1.6408541440976e-72
7.8277415561071e-78
2.5227175355027e-71
1.4386818315584e-71
5.979657612959e-80
1.4640341735242e-73
1.0521667259103e-72
1.178509693066e-73
1.3482629498419e-74
3.9480765361936e-74
2.4862579158957e-78
4.5558354123871e-75
1.6484284988343e-76
2.8599872227573e-76
0
0
0
0
0
0
0
3.9566690505295e-21
1.4978931202971e-19
2.660292005569e-18
2.8541599970833e-17
2.0067636198503e-16
1.0613445816038e-15
6.9525762908164e-15
6.2243722854347e-14
4.042853087662e-13
1.6944724366503e-12
4.3893980687889e-12
7.2976774733947e-12
1.096782991826e-11
1.7215608398494e-11
2.571306633508e-11
3.0427300319772e-11
3.0091241040492e-11
2.7607985302527e-11
2.2211094480886e-11
1.4307003878637e-11
6.8663983757392e-12
2.2452019305786e-12
5.281590606239e-13
1.2204889455611e-13
3.5664162777681e-14
1.2424765022836e-14
4.5594173750902e-15
1.6555334386205e-15
5.8552344062572e-16
2.027111414053e-16
6.9043175766063e-17
2.2951759254329e-17
7.306283063453e-18
2.189615369606e-18
6.1620599535216e-19
1.652101971261e-19
4.3125330485709e-20
1.1133833504236e-20
2.8565538424055e-21
7.2702689814099e-22
1.8312928855215e-22
4.563450703537e-23
1.1261632135476e-23
2.7556622632376e-24
6.6920640912255e-25
1.6138153572979e-25
3.8663124570883e-26
9.2058758976641e-27
2.1793463948468e-27
5.1313843900286e-28
1.2020649348746e-28
2.8023990524734e-29
6.5035810164292e-30
1.5027879753169e-30
3.4582700477523e-31
7.9272385097835e-32
1.8103633404466e-32
4.1196778953445e-33
9.3429050990221e-34
2.1119536302048e-34
4.7591435787269e-35
1.0692259454016e-35
2.3952844930757e-36
5.3510507843394e-37
1.1922294706898e-37
2.649483310317e-38
5.8733021171494e-39
1.2988538841698e-39
2.8656948844909e-40
6.3084731001003e-41
1.3857165318898e-41
3.0374553852775e-42
6.6444461716915e-43
1.4505998335425e-43
3.1608339584441e-44
6.8745615538727e-45
1.4924523882672e-45
3.2343718559475e-46
6.9973600748585e-47
1.5113087436039e-47
3.2588613053499e-48
7.01601418218e-49
1.5081493452317e-49
3.2370114596753e-50
6.9375498724303e-51
1.4847226478356e-51
3.1730490032384e-52
6.7719306780122e-53
1.4434254136122e-53
3.0701849550817e-54
6.5906817025146e-55
1.242705160653e-55
4.7314529938636e-56
0
0
0
0
0
0
3.6804360750736e-21
1.9761359518693e-19
4.8738813446351e-18
7.5543372864476e-17
8.1215884141365e-16
6.1741756333397e-15
3.1912697466605e-14
1.2701542206425e-13
5.3929910959002e-13
3.7671942934638e-12
3.4581549062456e-11
1.4732055540654e-10
3.0400453251445e-10
4.5288970208295e-10
7.0411830676262e-10
1.0553402187762e-09
1.2463522470055e-09
1.2276155712878e-09
1.1058702879479e-09
8.4206721463063e-10
4.6572693248787e-10
1.6320446326655e-10
3.5167325130378e-11
7.0743796098343e-12
2.0743215544835e-12
8.0102422149443e-13
3.3080345665483e-13
1.3400514125656e-13
5.2518648824326e-14
2.0038561559813e-14
7.4986208673892e-15
2.758518718076e-15
9.9129849527393e-16
3.42605489967e-16
1.1168769380122e-16
3.3911754355422e-17
9.6234245284118e-18
2.6020810535427e-18
6.8633912323243e-19
1.792413043447e-19
4.6503012453221e-20
1.1958059110914e-20
3.0412332911588e-21
7.6491022564724e-22
1.9047706247877e-22
4.702055739551e-23
1.1516704790563e-23
2.8003793527624e-24
6.7632202289783e-25
1.6230179721173e-25
3.8716898627507e-26
9.184257895196e-27
2.1671854758863e-27
5.088435751738e-28
1.1891165592625e-28
2.7664449464575e-29
6.408756202106e-30
1.478659918189e-30
3.3985006064677e-31
7.782270104445e-32
1.7758036226407e-32
4.0384808644191e-33
9.1545249814735e-34
2.0687329969998e-34
4.660970528218e-35
1.04713008695e-35
2.3459745539178e-36
5.241885654373e-37
1.1682452402267e-37
2.5971738320381e-38
5.7600288962534e-39
1.2744977705007e-39
2.8136920159963e-40
6.1982298570877e-41
1.3625154624019e-41
2.9889963033145e-42
6.5440357488691e-43
1.4299708855502e-43
3.1188442660942e-44
6.7899684293868e-45
1.4756078789135e-45
3.2012819489695e-46
6.9334012125933e-47
1.4991912104891e-47
3.2364883843819e-48
6.9761320962922e-49
1.5013969221516e-49
3.2265067933629e-50
6.9237143701102e-51
1.4837369566782e-51
3.1727977979178e-52
6.8447925872637e-53
1.3008999269542e-53
4.946812246065e-54
0
0
0
0
0
1.5756468358819e-21
1.1863910263323e-19
3.6520653628719e-18
6.711873870966e-17
8.6390725774255e-16
8.46342337057e-15
6.4882466566258e-14
3.8137312352841e-13
1.5444665981791e-12
4.4344254348195e-12
1.3642893114218e-11
6.7072670639284e-11
8.0066698672596e-10
8.1856011671706e-09
1.8326881257221e-08
2.5661227120447e-08
3.220964299079e-08
3.4099642841261e-08
3.3202219512733e-08
2.9716123156314e-08
2.2213255759054e-08
1.195134299592e-08
3.7582229952958e-09
5.2121121867745e-10
3.3723662571487e-11
9.5272792074377e-12
5.9351421698488e-12
3.2528720715351e-12
1.5183356234301e-12
6.6440703519837e-13
2.8129045613752e-13
1.1600828168993e-13
4.685039659396e-14
1.8520640284354e-14
7.0791571203711e-15
2.557480371922e-15
8.5393064444493e-16
2.6135945542284e-16
7.4311939179574e-17
2.0190255778508e-17
5.3796143988956e-18
1.4226559497713e-18
3.7353503810435e-19
9.7069803978294e-20
2.4926766261145e-20
6.328275341862e-21
1.5904251421731e-21
3.9615495502931e-22
9.788069336144e-23
2.4002748814746e-23
5.8447756497351e-24
1.4138800505268e-24
3.3991901923449e-25
8.1249311173481e-26
1.9314860416712e-26
4.5679669721873e-27
1.0750619136572e-27
2.518444082291e-28
5.8738037889701e-29
1.3642270337239e-29
3.1558656851225e-30
7.2726568796022e-31
1.6698701985904e-31
3.8208014508286e-32
8.713061933859e-33
1.980568721642e-33
4.4881379045867e-34
1.0140293512734e-34
2.2844972303026e-35
5.132528175476e-36
1.1500449289063e-36
2.5702818806747e-37
5.7301588759923e-38
1.2744064020177e-38
2.8277310299303e-39
6.2602093185144e-40
1.3828985105258e-40
3.0483935319277e-41
6.7059170747893e-42
1.4722365263204e-42
3.2259220514083e-43
7.0552187061728e-44
1.5401740778526e-44
3.3562417424382e-45
7.3009805554945e-46
1.5855255020244e-46
3.4375424723138e-47
7.4408686633761e-48
1.6081156092609e-48
3.4701123426039e-49
7.4772907672472e-50
1.6076407326367e-50
3.4858847611917e-51
6.6770093707083e-52
2.5375165969912e-52
0
0
0
0
0
3.1041238639894e-20
1.5793602952899e-18
3.7977839916992e-17
5.789647169326e-16
6.3342944542354e-15
5.3721740571329e-14
3.7336135880437e-13
2.1576831818292e-12
1.0001005530489e-11
3.0841418453981e-11
6.116708946737e-11
1.3247998219787e-10
9.2092960261278e-10
1.3807780419411e-08
3.7601404921661e-07
9.8024498200024e-07
8.8138988712604e-07
7.6928368318815e-07
6.9963072029238e-07
5.9435054147369e-07
4.3615515167422e-07
2.3857758552215e-07
7.908788706847e-08
1.1498345995881e-08
4.9860560147055e-10
4.8714277769669e-11
1.4385333308562e-11
1.0140959229311e-11
7.4242523834224e-12
4.168529959393e-12
2.0585241786527e-12
9.6884350163536e-13
4.4217915083868e-13
1.9639560338464e-13
8.4274925447575e-14
3.4238132370204e-14
1.2832740542197e-14
4.3560645237958e-15
1.3405013929123e-15
3.8275117094254e-16
1.0484367410601e-16
2.8255366476907e-17
7.5611772002368e-18
2.0068062721668e-18
5.2663650542337e-19
1.3649732022705e-19
3.4968014645817e-20
8.8661776883467e-21
2.2275068393939e-21
5.5496807677933e-22
1.3719587417186e-22
3.3671195435289e-23
8.2077306169599e-24
1.9880195750737e-24
4.7865101831484e-25
1.1459580558255e-25
2.7290140646414e-26
6.4662663531406e-27
1.5248419786369e-27
3.5795028105348e-28
8.3664644485883e-29
1.9474661947326e-29
4.5153063443734e-30
1.042962104643e-30
2.4003975776623e-31
5.5054861876047e-32
1.258537512096e-32
2.8678130104292e-33
6.5148177183678e-34
1.4756039016107e-34
3.3327269123329e-35
7.5064681295413e-36
1.6862369429049e-36
3.778220755851e-37
8.4445873659349e-38
1.8828968771756e-38
4.1885570238476e-39
9.296580361295e-40
2.0588867137844e-40
4.550091907048e-41
1.0034900845212e-41
2.2086995025821e-42
4.8519359315937e-43
1.0638281848908e-43
2.3282415292963e-44
5.086344755792e-45
1.1092386186347e-45
2.4149321112969e-46
5.2488515943911e-47
1.1389876359171e-47
2.4678067285349e-48
5.3348510197332e-49
1.1627028971738e-49
2.2440961570326e-50
8.5279573942686e-51
0
0
0
0
7.9676037583897e-35
2.8299944802859e-19
1.2211294066304e-17
2.5650403540653e-16
3.4714409221224e-15
3.3885968187046e-14
2.5447765663299e-13
1.5499936520866e-12
8.0006466845718e-12
3.5858045757284e-11
1.282985827388e-10
2.8555997292562e-10
4.2033695848594e-10
1.3243130289997e-09
1.5743048707044e-08
2.511824051742e-07
4.8051547930363e-06
2.0051623229457e-05
1.708576036863e-05
1.3107997977548e-05
1.0452683231959e-05
7.4649527388271e-06
4.2544568759243e-06
1.5657862339286e-06
2.7767928290661e-07
1.53648380089e-08
8.3356413569471e-10
1.7893250414554e-10
4.5808722335479e-11
1.6023057249825e-11
1.1455155190742e-11
8.2071072701929e-12
4.7462799009355e-12
2.50735682206e-12
1.2809587844218e-12
6.3128454248862e-13
2.9466235790561e-13
1.2693414362988e-13
4.9211004590526e-14
1.6950344235538e-14
5.237627430235e-15
1.4993887074507e-15
4.1330710213971e-16
1.124837484321e-16
3.0424754237969e-17
8.1551075581569e-18
2.15911211462e-18
5.6426393655621e-19
1.4572479492835e-19
3.7243568306409e-20
9.4300665632309e-21
2.3673138236034e-21
5.8956561591197e-22
1.4573766169792e-22
3.5775395967151e-23
8.7249020469937e-24
2.1148092982067e-24
5.096477903581e-25
1.221508077911e-25
2.9125685801437e-26
6.9107463737646e-27
1.6321061141398e-27
3.8374572533795e-28
8.9846234618535e-29
2.0950771853317e-29
4.8665427830803e-30
1.1262440725301e-30
2.5971802693606e-31
5.9688541075386e-32
1.3672778143073e-32
3.1221478496542e-33
7.1077421415083e-34
1.6133882853679e-34
3.651908575513e-35
8.2435978791176e-36
1.8559632519776e-36
4.1678798863832e-37
9.3366228300282e-38
2.0865409467436e-38
4.6522005165643e-39
1.0349388307378e-39
2.2973359463411e-40
5.0887994006413e-41
1.1248983392623e-41
2.481665513384e-42
5.4642304382554e-43
1.2008624214018e-43
2.634254237513e-44
5.76823639675e-45
1.2608671892354e-45
2.7514006847034e-46
5.9943061018401e-47
1.30291950637e-47
2.8542654406183e-48
5.5501505524384e-49
2.1099145550035e-49
0
0
0
0
-1.8015852191707e-47
1.5853577659086e-18
6.3020439550676e-17
1.2247361779194e-15
1.5359922236353e-14
1.3861856146385e-13
9.534659296376e-13
5.2166896451347e-12
2.3767604270614e-11
9.5733758644817e-11
3.4919882409395e-10
1.0423657572617e-09
2.2521095976873e-09
4.7958286945438e-09
2.2961345755001e-08
2.3108721625262e-07
3.1703040802516e-06
3.537869032272e-05
0.00023040455168117
0.00021405292184181
0.0001671131049721
0.00012329926907737
7.4154842163221e-05
3.13083196712e-05
6.9993575659679e-06
5.5284040227871e-07
2.1700804505038e-08
3.1304394003921e-09
7.4083921947568e-10
1.5347956837345e-10
3.8720258563444e-11
1.7017352283925e-11
1.2560071902298e-11
9.0280710605638e-12
5.5349500609729e-12
3.1680947259407e-12
1.723474970831e-12
8.6886600308287e-13
3.9357137772478e-13
1.5606933311748e-13
5.3780174404138e-14
1.6475524424458e-14
4.7008251684385e-15
1.304672383098e-15
3.5934414593408e-16
9.8293105748499e-17
2.6581020525017e-17
7.0904134446657e-18
1.8664458805942e-18
4.8555047651039e-19
1.2500054467503e-19
3.1876668949455e-20
8.0581179584935e-21
2.0204950598913e-21
5.0278445054064e-22
1.2422817139369e-22
3.0490569800188e-23
7.4368907749584e-24
1.8032405472393e-24
4.3480401548509e-25
1.0428924573036e-25
2.4889085418531e-26
5.9116578520611e-27
1.3977818352543e-27
3.2907153663409e-28
7.715183264198e-29
1.8017111662835e-29
4.1915970889991e-30
9.7162069545405e-31
2.2443973516225e-31
5.1671050108102e-32
1.1857535145084e-32
2.7126438374012e-33
6.1871530956595e-34
1.4071303426935e-34
3.1912894228854e-35
7.2181691905656e-36
1.6283782458425e-36
3.664267778048e-37
8.225403126305e-38
1.8420350327079e-38
4.115667386016e-39
9.1751632064817e-40
2.0410164344115e-40
4.5306976351097e-41
1.0036793503109e-41
2.2190164625912e-42
4.8964902131461e-43
1.07842578589e-43
2.3708167569296e-44
5.2026749766232e-45
1.139774945731e-45
2.491031725764e-46
5.4853532312536e-47
1.0745283225989e-47
4.0877433369843e-48
0
0
0
0
0
6.3856653083018e-18
2.4173866315225e-16
4.4294365865294e-15
5.2193582435314e-14
4.4317130003299e-13
2.8687563589238e-12
1.4587654868525e-11
6.0278923427159e-11
2.20502366692e-10
8.3765020772315e-10
3.4883196466746e-09
1.2622903084054e-08
3.5652573494933e-08
9.8726853287846e-08
4.2910327001193e-07
3.199730780819e-06
3.1890188961724e-05
0.00026599019334282
0.0019142600178398
0.0022677665478236
0.0018717192839237
0.0012662015599569
0.0006369153715059
0.00017741148212976
1.8285799451036e-05
6.0063443672596e-07
6.523942084967e-08
1.6203822571104e-08
3.0738596391589e-09
5.9703908329419e-10
1.2766127937317e-10
3.4196327983872e-11
1.895402486978e-11
1.5254667342897e-11
1.1353526393767e-11
7.3372816295325e-12
4.3358919614689e-12
2.3084737477382e-12
1.0646669759288e-12
4.1610583339944e-13
1.3963873463311e-13
4.2172933916674e-14
1.2098810831892e-14
3.4084488441176e-15
9.516266182623e-16
2.6280828628999e-16
7.159514259285e-17
1.9229456834025e-17
5.0972087731239e-18
1.3353416286813e-18
3.4615512218005e-19
8.8872144271789e-20
2.2614787464666e-20
5.7071862448307e-21
1.4292108601297e-21
3.5533088187793e-22
8.7745971533376e-23
2.1530505466889e-23
5.2513629507156e-24
1.2735727228181e-24
3.072130263622e-25
7.3729053305547e-26
1.7608805356697e-26
4.1861384258844e-27
9.9079125708442e-28
2.3351838770975e-28
5.4816276778021e-29
1.2818024267373e-29
2.9862368373856e-30
6.9323889259804e-31
1.6038245098273e-31
3.6982986491158e-32
8.5010155484608e-33
1.9481063849065e-33
4.4511679875006e-34
1.0141414171598e-34
2.3042393219146e-35
5.2215594122959e-36
1.1801939801623e-36
2.660860551496e-37
5.9846616840589e-38
1.3428806495997e-38
3.0063915884822e-39
6.7157195461965e-40
1.4969442540696e-40
3.329743000008e-41
7.3914998068938e-42
1.637551003458e-42
3.620930915289e-43
7.9915090842869e-44
1.7606118858009e-44
3.869364025005e-45
8.5654464622496e-46
1.6903048275633e-46
6.4368301468495e-47
0
0
0
0
0
1.9393544879985e-17
7.1600294308503e-16
1.2772107374727e-14
1.4558285461812e-13
1.1803994600421e-12
7.178999532411e-12
3.4300110976302e-11
1.3414957263999e-10
4.8052728044754e-10
2.0757047716928e-09
1.1558719854078e-08
6.0153342566764e-08
2.2550769575939e-07
6.7568849229076e-07
2.0925443866093e-06
8.4926832584646e-06
4.9636224579228e-05
0.00035732567802701
0.0026836560189343
0.014299259351052
0.028957382679467
0.025568324666883
0.01475454419004
0.0045692547074954
0.00040209741930728
1.2119750597585e-05
1.5579372014578e-06
3.7289598525719e-07
7.0258304982537e-08
1.3245772044293e-08
2.5154368650975e-09
4.9172876471356e-10
1.1008261655819e-10
3.2204562947839e-11
2.5491203801436e-11
2.2440324220387e-11
1.689301569652e-11
1.0475096439333e-11
5.4785034961116e-12
2.4186628921595e-12
9.0728722177763e-13
2.9889991612368e-13
9.0616398869495e-14
2.6366682583584e-14
7.5342854024685e-15
2.1265425686184e-15
5.9213071509658e-16
1.6245321740794e-16
4.3930915077654e-17
1.1724693597423e-17
3.0925408741181e-18
8.0704916175258e-19
2.0856396299806e-19
5.3413473127564e-20
1.3564732520068e-20
3.4179595887613e-21
8.5494507724842e-22
2.1238423846495e-22
5.2419894989664e-23
1.2859364365032e-23
3.1364409148096e-24
7.6081793573518e-25
1.8359919907938e-25
4.408771428366e-26
1.0537136767995e-26
2.5071450389528e-27
5.9398384960145e-28
1.4014847108217e-28
3.2937844609997e-29
7.7119549602624e-30
1.7991238618531e-30
4.1825917841635e-31
9.6911311120674e-32
2.2382122638521e-32
5.1531872966014e-33
1.1828932360055e-33
2.7074132438223e-34
6.1793794353396e-35
1.4065531105027e-35
3.1931983317747e-36
7.2308558820819e-37
1.6333577626317e-37
3.6807201514069e-38
8.2751262212863e-39
1.8562472618695e-39
4.154741897939e-40
9.2795234220626e-41
2.0682634809208e-41
4.6005397701334e-42
1.0213060494695e-42
2.2630324475816e-43
5.0019463378051e-44
1.1132468064431e-44
2.2132949711989e-45
8.4395614644869e-46
0
0
0
0
0
4.1044653411476e-17
1.5157738297456e-15
2.6705913074742e-14
2.9810090227593e-13
2.3553354831102e-12
1.4263742855072e-11
6.6765557131874e-11
2.5703295056516e-10
1.0352581691944e-09
5.5180093157744e-09
3.4588090201622e-08
2.1460815197045e-07
1.10805216421e-06
4.1081831496412e-06
1.2763812256842e-05
4.2720763230399e-05
0.00017743157838229
0.00091396195031051
0.0054625631924828
0.03349105551684
0.17402643157963
0.41282429067869
0.33965057967405
0.1117694779177
0.010266949709928
0.00027251348026449
4.0255198956232e-05
8.7603425932665e-06
1.6476734987398e-06
3.0975997921305e-07
5.8269001187417e-08
1.0987072406186e-08
2.0970382654167e-09
4.1636018215189e-10
1.0008503287243e-10
4.8201526904294e-11
4.4751456771268e-11
3.6413851113042e-11
2.1822860160358e-11
1.0823956995084e-11
4.5885607920438e-12
1.6769929018423e-12
5.477067399863e-13
1.6711928424411e-13
4.9266415161252e-14
1.4252612141001e-14
4.0609154739238e-15
1.1392368583884e-15
3.1467666392606e-16
8.5664889720336e-17
2.3016330829445e-17
6.1112878484651e-18
1.605302146965e-18
4.175274647181e-19
1.0760615439562e-19
2.7497503970674e-20
6.971119257072e-21
1.7542308645797e-21
4.3837360819877e-22
1.0883126828203e-22
2.6851929610943e-23
6.5865156298762e-24
1.6066719709239e-24
3.8986242363651e-25
9.4128152631298e-26
2.2617994225301e-26
5.4101524647015e-27
1.2884665891679e-27
3.0558081911185e-28
7.2184443132471e-29
1.6986186376926e-29
3.9824323974867e-30
9.3038447319302e-31
2.1661843533264e-31
5.0269107830369e-32
1.1628679601046e-32
2.6818272753279e-33
6.166622514466e-34
1.4139126369403e-34
3.2329323624901e-35
7.3723770165569e-36
1.6768391152771e-36
3.8043671970444e-37
8.6101983859296e-38
1.9440817437562e-38
4.3794137334797e-39
9.8434104336276e-40
2.2076496339652e-40
4.9407777420167e-41
1.1034789632725e-41
2.4596904813155e-42
5.4686601783537e-43
1.2239236237042e-43
2.4518689973329e-44
9.3645662717795e-45
0
0
0
1.9089036023473e-48
7.7419580597158e-34
5.1555371914889e-17
1.9331701817139e-15
3.414052195131e-14
3.7952344243255e-13
2.9749962318008e-12
1.7284581410123e-11
7.965251900057e-11
3.4056557827567e-10
1.803895677392e-09
1.2305790585942e-08
8.7666564269154e-08
5.8814565350266e-07
3.6109236398357e-06
1.8917537645466e-05
7.3351911188793e-05
0.00024103515162394
0.00086297908286647
0.0036880169669743
0.018560031291227
0.11258439599526
0.55337898556254
0.91013960314026
0.90566622605542
0.76297537822683
0.29237843930544
0.029371871114217
0.0010131231897355
0.00016770105030603
3.5192034897526e-05
6.6385918658317e-06
1.252045801985e-06
2.3615799743902e-07
4.4592583842723e-08
8.4633525528463e-09
1.6388782657757e-09
3.5644102403111e-10
1.0429561865942e-10
8.3115928225123e-11
6.5653476084851e-11
3.9151071621102e-11
1.8429551521576e-11
7.4757645990528e-12
2.6701481498974e-12
8.684321341424e-13
2.6695042000284e-13
7.9573066896358e-14
2.3253684779967e-14
6.6794979370178e-15
1.8867966409915e-15
5.2456653221066e-16
1.4373514444645e-16
3.8872091836794e-17
1.0388848217979e-17
2.7466007374973e-18
7.1894055305221e-19
1.8645735115418e-19
4.7944233286777e-20
1.2229618053036e-20
3.0962142409163e-21
7.7837562059681e-22
1.9438647116914e-22
4.8241709959967e-23
1.1901605257623e-23
2.9197651615346e-24
7.1247851005755e-25
1.7297724001769e-25
4.1792896951508e-26
1.0050955633981e-26
2.4065316154816e-27
5.7376855429011e-28
1.3624443626203e-28
3.2226149638428e-29
7.5940201755878e-30
1.7830790102847e-30
4.1721787369296e-31
9.7297824798825e-32
2.2617388791778e-32
5.2411807128935e-33
1.2109010238819e-33
2.7894847369038e-34
6.4079015523828e-35
1.4679886255808e-35
3.3541393216813e-36
7.6440890037144e-37
1.737759076009e-37
3.9409774747013e-38
8.9165894008792e-39
2.0128086180515e-39
4.5335913331121e-40
1.0189267729217e-40
2.2853303036666e-41
5.1121986622612e-42
1.150815960341e-42
2.3234716720853e-43
8.8917439969601e-44
0
0
0
4.3219152942573e-47
2.545180557548e-33
5.0027520026104e-17
1.8875312585114e-15
3.3475613202458e-14
3.730594481254e-13
2.9246117015041e-12
1.6952935796922e-11
7.7651358069713e-11
3.3122513755244e-10
1.937895650856e-09
1.5821454030327e-08
1.3514618560722e-07
1.1042897548021e-06
8.368406343257e-06
5.4171766956979e-05
0.00029543311452751
0.0012636453625447
0.0045214180194722
0.017528600710563
0.085631740071458
0.44266027002476
0.8898596614337
0.98444233092967
0.99339314670834
0.98610308768794
0.90486461579096
0.48034191958082
0.066503524648724
0.0027238299801587
0.00039533056051341
8.7449273100047e-05
1.6778734588928e-05
3.2160425075662e-06
6.1602964416772e-07
1.1800632910805e-07
2.2673072986358e-08
4.4189470544912e-09
9.1755938771568e-10
2.4427248490766e-10
1.4818413857468e-10
1.0455267062375e-10
6.0022094562792e-11
2.7101288882723e-11
1.0577569745493e-11
3.698401420111e-12
1.1979240993096e-12
3.7054669008066e-13
1.1146754239755e-13
3.2845180970152e-14
9.5004016323709e-15
2.7006528682326e-15
7.5555641530944e-16
2.0835644861535e-16
5.6715177445725e-17
1.5256520685684e-17
4.0597719615944e-18
1.0695499559404e-18
2.7917096235646e-19
7.2241677337418e-20
1.8543886906482e-20
4.7242093582518e-21
1.1950058918295e-21
3.002624500661e-22
7.4969168256302e-23
1.8606342533768e-23
4.5916537630274e-24
1.1270130740906e-24
2.7520254478557e-25
6.6871761773026e-26
1.6173172704112e-26
3.8940194347133e-27
9.3354106546587e-28
2.228832711016e-28
5.3003119814966e-29
1.2556593507899e-29
2.9638142000459e-30
6.9710354252563e-31
1.6340513239658e-31
3.8177533427302e-32
8.8914486052288e-33
2.0644560689318e-33
4.7791504245845e-34
1.1031862085415e-34
2.5394461034434e-35
5.8298611843588e-36
1.3348780609873e-36
3.0487551549352e-37
6.9459693908067e-38
1.5787117243033e-38
3.5798220360439e-39
8.0990655723057e-40
1.8283891824779e-40
4.1164327997175e-41
9.3234421187521e-42
1.8976674985895e-42
7.279535418191e-43
0
0
0
5.4532478301125e-47
6.3259309240099e-47
4.1451227757166e-17
1.594704468468e-15
2.8786756111888e-14
3.2532933182764e-13
2.5701622531227e-12
1.4974507466176e-11
6.8072309082729e-11
2.8788851424063e-10
1.7305715751985e-09
1.4666104438168e-08
1.3147959292654e-07
1.1550069176076e-06
1.0037176851088e-05
8.5426401360928e-05
0.0006879795264199
0.0042489308620735
0.02048691213182
0.092543391889976
0.42467644594015
0.86214546527066
0.97839433230845
0.99364234510122
0.99626987379763
0.99675863627887
0.9954638051474
0.94064833676592
0.54820609642904
0.082474616672203
0.0043157428729374
0.0006911063771308
0.00015050070466758
2.9531844635418e-05
5.7864138427981e-06
1.1325785779096e-06
2.2164670277136e-07
4.3388523014139e-08
8.5775363934962e-09
1.7836907680088e-09
4.6151715591427e-10
2.4084284092176e-10
1.5292811082674e-10
8.1297903531676e-11
3.4678253333674e-11
1.2994488726252e-11
4.4508141682952e-12
1.4365801538835e-12
4.4671256930523e-13
1.3535922095765e-13
4.015211002884e-14
1.1684802541557e-14
3.3417700865525e-15
9.4081876608248e-16
2.6114239157233e-16
7.155855372036e-17
1.9379304097802e-17
5.1917658422337e-18
1.3770350774089e-18
3.6185676284794e-19
9.4267665380728e-20
2.435932944022e-20
6.2468458742107e-21
1.590536017807e-21
4.0224343006183e-22
1.0107791613562e-22
2.5245871797373e-23
6.2693667175365e-24
1.5483803160882e-24
3.8042059118393e-25
9.3000631956755e-26
2.2627609878081e-26
5.4803821450855e-27
1.3215531716102e-27
3.1734870286614e-28
7.5899457205619e-29
1.8082456286404e-29
4.2919607592329e-30
1.015061939852e-30
2.3923418361201e-31
5.619530100671e-32
1.3157460324138e-32
3.0710432534127e-33
7.1463712150499e-34
1.658107303571e-34
3.8362473724676e-35
8.8512574338379e-36
2.0367764235322e-36
4.6747205412844e-37
1.070222604091e-37
2.4441598385058e-38
5.5686534078539e-39
1.2658495345104e-39
2.8694250406701e-40
6.5413981156376e-41
1.3426962577206e-41
5.1654618481421e-42
0
0
0
7.9701433241243e-47
9.0198325228056e-47
2.3655741146292e-17
9.545892363638e-16
1.8042655373741e-14
2.1189797593607e-13
1.7230682034981e-12
1.0296330684805e-11
4.7147154513118e-11
1.937282459741e-10
1.112444242134e-09
9.8978471176597e-09
9.6952532152714e-08
9.4259623235753e-07
8.7866745956899e-06
8.0834616385164e-05
0.0006996116936713
0.0063657729104241
0.060239485790979
0.39302775875544
0.86294806843408
0.98028689161443
0.99328477096715
0.99639811648889
0.99695636165068
0.99705798821468
0.99704759274161
0.9958966812589
0.94106386887882
0.50894896129565
0.071193303528094
0.00442789720892
0.00077162740529453
0.0001737001418202
3.5422005999537e-05
7.2363559724171e-06
1.4660511660276e-06
2.9498416275666e-07
5.9443870250402e-08
1.2082196678177e-08
2.6065054867183e-09
6.9678215523308e-10
3.4580732065192e-10
1.9747179534254e-10
9.4726797873495e-11
3.7808959161005e-11
1.3648731000969e-11
4.6076192263921e-12
1.4869125389407e-12
4.6480912254805e-13
1.4171965881329e-13
4.2297620271453e-14
1.2386789026575e-14
3.5660875613262e-15
1.0109725613868e-15
2.8263392300468e-16
7.8014858796705e-17
2.128388615092e-17
5.7442738245768e-18
1.5348648588658e-18
4.0630803042124e-19
1.066243503493e-19
2.7752998135245e-20
7.168500141727e-21
1.8382433392348e-21
4.6817407608703e-22
1.1846744224587e-22
2.9793521397864e-23
7.4491657551051e-24
1.8521558850926e-24
4.5808193875622e-25
1.1272174938078e-25
2.7603668618093e-26
6.7283602763914e-27
1.6327425209259e-27
3.9452028514637e-28
9.4937163451238e-29
2.2755478588004e-29
5.4335273967873e-30
1.2926574444918e-30
3.0644093863393e-31
7.239768536084e-32
1.7047747647452e-32
4.0014822660076e-33
9.3633435042527e-34
2.1844366762096e-34
5.0814366021661e-35
1.1787187795856e-35
2.7267589723227e-36
6.2911584040655e-37
1.4477538652804e-37
3.3232974075276e-38
7.6102917429519e-39
1.7376880327162e-39
3.9889814560189e-40
8.2604744141841e-41
3.1889530347021e-41
0
0
0
4.0085291582033e-46
3.3918720357666e-46
5.7077657910427e-18
2.6165501311588e-16
5.5886019380764e-15
7.2617030587061e-14
6.4146808631761e-13
4.0938584688368e-12
1.947952399435e-11
7.6793822069418e-11
3.6887469563158e-10
3.3510530641181e-09
3.9544313038584e-08
4.5573241730481e-07
4.9656976876122e-06
5.1608542364197e-05
0.00051268747457648
0.0052703817450391
0.060592468672434
0.52328132798043
0.94489100098763
0.99288131458627
0.9963007843901
0.99701999863609
0.99711350461769
0.99705573399463
0.99707499901816
0.99705972513149
0.99098701992591
0.88315901297481
0.32319772887347