/*--------------------------------*- C++ -*----------------------------------*\
  =========                 |
  \\      /  F ield         | OpenFOAM: The Open Source CFD Toolbox
   \\    /   O peration     | Website:  https://openfoam.org
    \\  /    A nd           | Version:  7
     \\/     M anipulation  |
\*---------------------------------------------------------------------------*/
FoamFile
{
    version     2.0;
    format      ascii;
    class       volScalarField;
    location    "0.035";
    object      T;
}
// * * * * * * * * * * * * * * * * * * * * * * * * * * * * * * * * * * * * * //

dimensions      [0 0 0 1 0 0 0];

internalField   nonuniform List<scalar> 
12225
(
1.00689
1.0041
1.00171
1.00089
1.00043
1.00012
0.999964
0.999896
0.999863
0.999837
0.999811
0.999754
0.99962
0.999274
0.998402
0.996279
0.990792
0.977407
0.995136
0.994812
0.996745
0.998334
0.999127
0.999464
0.999644
0.999763
0.999836
0.999873
0.99988
0.999848
0.999728
0.999403
0.998567
0.996545
0.991536
0.979723
0.999619
1.00005
1.00023
1.00028
1.0002
1.00008
0.999991
0.999952
0.999931
0.999911
0.999883
0.999829
0.999701
0.999384
0.9986
0.996744
0.99237
0.98289
1.00032
1.00017
0.999777
0.999749
0.999819
0.999835
0.999837
0.99985
0.999862
0.999865
0.999855
0.999815
0.999703
0.999417
0.998714
0.997082
0.993435
0.986074
1.00014
0.999947
0.999658
0.999701
0.999818
0.999857
0.999862
0.999871
0.999879
0.999881
0.999869
0.999832
0.999728
0.999469
0.998851
0.997461
0.994514
0.988934
1.00002
0.999951
0.999769
0.999773
0.999847
0.999872
0.999872
0.999876
0.999882
0.999883
0.999873
0.999838
0.999745
0.999519
0.998992
0.997846
0.995532
0.991374
0.999995
1
0.999864
0.999822
0.999858
0.999877
0.999879
0.999882
0.999887
0.999888
0.999879
0.999847
0.999767
0.999574
0.999137
0.99822
0.996447
0.993393
0.999995
1.00002
0.999917
0.999858
0.999872
0.999888
0.999889
0.999891
0.999894
0.999895
0.999887
0.999859
0.99979
0.99963
0.999279
0.998565
0.997236
0.995024
0.999995
1.00002
0.999951
0.999894
0.999893
0.999902
0.999902
0.999902
0.999904
0.999903
0.999896
0.999872
0.999815
0.999686
0.999411
0.99887
0.997895
0.996315
0.999995
1.00002
0.999976
0.999926
0.999916
0.999918
0.999916
0.999915
0.999915
0.999913
0.999906
0.999886
0.999839
0.999738
0.999529
0.99913
0.99843
0.997317
0.999996
1.00002
0.999992
0.999953
0.999938
0.999934
0.999931
0.999927
0.999926
0.999924
0.999917
0.9999
0.999864
0.999787
0.999631
0.999343
0.998851
0.998083
0.999997
1.00001
1
0.999971
0.999954
0.999949
0.999944
0.99994
0.999937
0.999933
0.999927
0.999914
0.999885
0.999826
0.99971
0.999501
0.99915
0.998608
0.999997
1.00001
1.00001
0.999984
0.999968
0.999962
0.999957
0.999952
0.999948
0.999944
0.999939
0.999928
0.999905
0.999861
0.999777
0.999627
0.999382
0.999008
0.999997
1.00001
1.00001
0.999993
0.999981
0.999974
0.999968
0.999964
0.99996
0.999955
0.999951
0.999943
0.999925
0.999894
0.999838
0.999739
0.999579
0.999339
0.999998
1.00001
1.00001
1
0.999991
0.999985
0.999981
0.999977
0.999972
0.999967
0.999963
0.999957
0.999946
0.999926
0.999889
0.999829
0.999734
0.999593
0.999998
1.00001
1.00001
1
0.999998
0.999994
0.999991
0.999988
0.999983
0.999979
0.999975
0.999971
0.999964
0.999952
0.99993
0.999896
0.999844
0.999769
0.999998
1.00001
1.00001
1.00001
1
0.999999
0.999998
0.999996
0.999992
0.999989
0.999985
0.999981
0.999977
0.999971
0.99996
0.999942
0.999917
0.999882
0.999999
1.00001
1.00001
1.00001
1
1
1
0.999998
0.999995
0.999993
0.999992
0.999991
0.999987
0.999982
0.999977
0.99997
0.99996
0.999944
1
1.00001
1.00001
1.00001
1
1
1
0.999999
0.999998
0.999996
0.999994
0.999992
0.99999
0.999987
0.999985
0.999982
0.999977
0.99997
0.999999
1.00001
1.00001
1.00001
1.00001
1
0.999998
0.999996
0.999993
0.999991
0.999989
0.999987
0.999985
0.999982
0.99998
0.999978
0.999975
0.999972
0.999997
1.00001
1.00001
1.00001
1
0.999998
0.999993
0.999988
0.999985
0.999982
0.999979
0.999976
0.999973
0.999972
0.99997
0.999968
0.999967
0.999965
0.999997
1.00001
1.00002
1.00001
0.999995
0.999988
0.999982
0.999975
0.999969
0.999965
0.999964
0.999963
0.99996
0.999959
0.999958
0.999958
0.999956
0.999955
0.999996
1.00003
1.00003
0.999996
0.999972
0.999966
0.999961
0.999956
0.999952
0.999949
0.999948
0.999947
0.999946
0.999945
0.999945
0.999944
0.999944
0.999944
0.999989
1.00005
1.00004
0.999983
0.999948
0.999938
0.999932
0.999929
0.999929
0.999931
0.999932
0.999933
0.999932
0.999933
0.999934
0.999934
0.999935
0.999935
0.99999
1.00004
0.999992
0.999937
0.999931
0.999929
0.999917
0.999909
0.999908
0.99991
0.999912
0.999915
0.999917
0.999918
0.999919
0.999921
0.999923
0.999925
1.00013
1.00009
0.999825
0.999756
0.999837
0.999896
0.999909
0.999912
0.999916
0.999918
0.99992
0.999921
0.999922
0.999922
0.999923
0.999924
0.999925
0.999926
1.0005
1.00053
0.999952
0.999665
0.999667
0.999718
0.999754
0.999789
0.99982
0.999844
0.999861
0.999875
0.999885
0.999893
0.9999
0.999905
0.999909
0.999915
1.00004
1.0008
1.00096
1.0008
1.00056
1.00034
1.00018
1.00009
1.00003
0.999996
0.99997
0.999954
0.999943
0.999935
0.99993
0.999925
0.999921
0.999921
0.994604
0.993791
0.995838
0.997661
0.998662
0.999144
0.999416
0.999594
0.99971
0.999782
0.999829
0.999863
0.999887
0.999905
0.999918
0.999928
0.999933
0.99993
1.00635
1.00419
1.00178
1.00096
1.00054
1.00023
1.00005
0.999977
0.999939
0.999915
0.9999
0.999891
0.999888
0.999886
0.999885
0.999886
0.999888
0.999899
0.353573
0.353513
0.353369
0.353152
0.35287
0.352522
0.352107
0.351626
0.351082
0.350477
0.349812
0.34909
0.348311
0.347479
0.346596
0.345665
0.34469
0.343673
0.342618
0.34153
0.340413
0.33927
0.338106
0.336925
0.335732
0.33453
0.333325
0.332117
0.330912
0.329713
0.328529
0.327377
0.326291
0.325332
0.324394
0.323396
0.322427
0.321466
0.320525
0.319611
0.318713
0.31787
0.3171
0.316353
0.315656
0.31503
0.314446
0.31391
0.313422
0.312981
0.312587
0.312239
0.311935
0.311676
0.311461
0.311289
0.311158
0.311069
0.311019
0.311009
0.311035
0.311098
0.311195
0.311326
0.311489
0.311683
0.311905
0.312155
0.312431
0.31273
0.313052
0.313395
0.313757
0.314137
0.314532
0.314941
0.315362
0.315794
0.316235
0.316684
0.317138
0.317596
0.318057
0.318519
0.31898
0.31944
0.319896
0.320347
0.320791
0.321228
0.321656
0.322074
0.322479
0.322872
0.323249
0.323611
0.323954
0.324278
0.324583
0.324869
0.325132
0.325372
0.325588
0.325778
0.325941
0.326076
0.326181
0.326255
0.326298
0.326307
0.326282
0.326222
0.326124
0.325988
0.325813
0.325596
0.325338
0.325036
0.324689
0.324295
0.323854
0.323364
0.322822
0.322228
0.32158
0.320877
0.320117
0.319299
0.31842
0.317481
0.316478
0.315411
0.314278
0.313077
0.311806
0.310464
0.309049
0.30756
0.305995
0.304351
0.302628
0.300824
0.298936
0.296962
0.294902
0.292753
0.290513
0.288182
0.285756
0.283236
0.280618
0.277902
0.275087
0.27217
0.269151
0.266029
0.262802
0.25947
0.256031
0.252485
0.248832
0.24507
0.241197
0.23721
0.23311
0.228901
0.224586
0.220167
0.215643
0.211015
0.206285
0.201452
0.19652
0.191489
0.186366
0.181158
0.175889
0.170572
0.165368
0.160134
0.35528
0.35521
0.355072
0.354862
0.354584
0.354238
0.353825
0.353345
0.352797
0.352186
0.351511
0.350777
0.349987
0.349143
0.348249
0.347309
0.346324
0.3453
0.34424
0.343148
0.342028
0.340885
0.339723
0.338549
0.337366
0.336182
0.335001
0.333831
0.332675
0.331538
0.33042
0.329317
0.328223
0.32706
0.325872
0.324778
0.323745
0.322771
0.32185
0.320973
0.320147
0.319358
0.318587
0.317873
0.317218
0.316594
0.316014
0.315479
0.31499
0.314549
0.314153
0.313804
0.3135
0.313241
0.313025
0.312852
0.312721
0.312631
0.312581
0.312569
0.312595
0.312657
0.312754
0.312885
0.313048
0.313241
0.313464
0.313714
0.313989
0.31429
0.314612
0.314956
0.315319
0.3157
0.316097
0.316508
0.316931
0.317366
0.31781
0.318261
0.318718
0.31918
0.319645
0.320111
0.320577
0.32104
0.321501
0.321957
0.322407
0.322849
0.323282
0.323706
0.324117
0.324515
0.324899
0.325268
0.325621
0.325956
0.326271
0.326565
0.326837
0.327085
0.327308
0.327506
0.327677
0.327819
0.327933
0.328015
0.328066
0.328083
0.328066
0.328014
0.327924
0.327796
0.327629
0.32742
0.327169
0.326875
0.326536
0.32615
0.325716
0.325232
0.324698
0.324111
0.32347
0.322773
0.322019
0.321207
0.320334
0.3194
0.318403
0.317341
0.316213
0.315016
0.31375
0.312412
0.311001
0.309515
0.307952
0.306311
0.30459
0.302788
0.300901
0.298929
0.296869
0.29472
0.29248
0.290148
0.287722
0.285199
0.28258
0.279861
0.277043
0.274123
0.2711
0.267973
0.264741
0.261403
0.257958
0.254406
0.250745
0.246975
0.243098
0.239112
0.235019
0.230816
0.226506
0.222089
0.217566
0.212938
0.208205
0.203368
0.19843
0.193391
0.188258
0.183037
0.177751
0.172416
0.167161
0.161932
0.358764
0.358664
0.358507
0.358282
0.357987
0.357621
0.357185
0.356681
0.356111
0.355476
0.35478
0.354025
0.353214
0.35235
0.351436
0.350476
0.349473
0.348431
0.347354
0.346246
0.345112
0.343956
0.342782
0.341595
0.340401
0.339202
0.338004
0.33681
0.335622
0.334443
0.333276
0.332126
0.331
0.329891
0.328804
0.327752
0.326735
0.325759
0.324827
0.323941
0.323104
0.322317
0.321575
0.320877
0.320219
0.319601
0.319026
0.318497
0.318013
0.317574
0.317181
0.316833
0.316529
0.31627
0.316055
0.315882
0.315751
0.315661
0.315611
0.3156
0.315626
0.315689
0.315787
0.315919
0.316084
0.316279
0.316504
0.316756
0.317035
0.317339
0.317666
0.318015
0.318383
0.31877
0.319173
0.319592
0.320023
0.320466
0.320919
0.32138
0.321848
0.322321
0.322798
0.323276
0.323755
0.324233
0.324708
0.325179
0.325644
0.326103
0.326553
0.326993
0.327423
0.32784
0.328243
0.32863
0.329001
0.329355
0.329689
0.330004
0.330296
0.330566
0.330811
0.331031
0.331225
0.33139
0.331526
0.331631
0.331705
0.331746
0.331753
0.331723
0.331657
0.331553
0.331409
0.331223
0.330996
0.330725
0.330408
0.330045
0.329633
0.329172
0.32866
0.328094
0.327474
0.326798
0.326065
0.325273
0.32442
0.323505
0.322526
0.321482
0.320371
0.319191
0.317941
0.316618
0.315221
0.313749
0.3122
0.310571
0.308861
0.307069
0.305192
0.303228
0.301176
0.299034
0.296799
0.294472
0.292049
0.289529
0.286911
0.284192
0.281373
0.278451
0.275424
0.272293
0.269055
0.26571
0.262256
0.258694
0.255022
0.251241
0.24735
0.243351
0.239243
0.235026
0.230699
0.226263
0.221719
0.217068
0.212309
0.207444
0.202475
0.197402
0.19223
0.186965
0.181627
0.176232
0.170886
0.165573
0.363979
0.363849
0.363666
0.363418
0.363097
0.362703
0.362237
0.361703
0.361101
0.360436
0.35971
0.358925
0.358084
0.357192
0.35625
0.355263
0.354235
0.353169
0.352069
0.35094
0.349786
0.348611
0.34742
0.346218
0.345008
0.343795
0.342582
0.341375
0.340176
0.338989
0.33782
0.336672
0.335548
0.334448
0.333376
0.332336
0.331332
0.330365
0.329438
0.328551
0.327709
0.326911
0.326156
0.325448
0.324784
0.324165
0.32359
0.323061
0.322576
0.322137
0.321743
0.321394
0.32109
0.320829
0.320612
0.320437
0.320304
0.320213
0.320161
0.320149
0.320174
0.320236
0.320334
0.320467
0.320632
0.320829
0.321056
0.321311
0.321594
0.321902
0.322235
0.322589
0.322965
0.32336
0.323772
0.3242
0.324642
0.325097
0.325563
0.326038
0.326521
0.32701
0.327504
0.328
0.328498
0.328995
0.329491
0.329984
0.330472
0.330954
0.331429
0.331895
0.33235
0.332794
0.333225
0.333641
0.334042
0.334425
0.33479
0.335135
0.335459
0.335761
0.336039
0.336292
0.336519
0.336718
0.336889
0.337029
0.337137
0.337213
0.337255
0.337261
0.33723
0.33716
0.337052
0.336902
0.336709
0.336473
0.336191
0.335862
0.335485
0.335058
0.334579
0.334046
0.333458
0.332814
0.332112
0.331351
0.330528
0.329642
0.328692
0.327676
0.326591
0.325437
0.324211
0.322912
0.321539
0.320088
0.318559
0.31695
0.315258
0.313482
0.31162
0.309671
0.307631
0.3055
0.303275
0.300956
0.298539
0.296024
0.293409
0.290693
0.287873
0.284949
0.281919
0.278782
0.275536
0.272182
0.268717
0.265141
0.261454
0.257655
0.253744
0.249723
0.245589
0.241344
0.236987
0.232518
0.227939
0.223249
0.218448
0.213538
0.208519
0.203392
0.19816
0.192828
0.187412
0.181927
0.176461
0.171005
0.370933
0.37077
0.370559
0.370287
0.369938
0.369512
0.369013
0.368442
0.367805
0.367102
0.366338
0.365516
0.364639
0.36371
0.362733
0.361713
0.360652
0.359555
0.358426
0.35727
0.35609
0.354892
0.353679
0.352456
0.351227
0.349998
0.348771
0.347552
0.346344
0.345151
0.343977
0.342826
0.3417
0.3406
0.33953
0.338493
0.337492
0.336528
0.335603
0.334719
0.333876
0.333077
0.332321
0.331609
0.330942
0.33032
0.329742
0.32921
0.328723
0.328281
0.327884
0.327531
0.327223
0.326959
0.326738
0.32656
0.326423
0.326328
0.326274
0.326258
0.326281
0.326342
0.326438
0.32657
0.326735
0.326933
0.327162
0.32742
0.327707
0.328019
0.328358
0.328719
0.329103
0.329507
0.329929
0.330369
0.330824
0.331293
0.331774
0.332266
0.332767
0.333275
0.333789
0.334307
0.334827
0.335349
0.33587
0.33639
0.336906
0.337417
0.337921
0.338418
0.338906
0.339383
0.339847
0.340298
0.340735
0.341155
0.341557
0.341941
0.342304
0.342646
0.342964
0.343258
0.343527
0.343768
0.343981
0.344164
0.344316
0.344435
0.34452
0.34457
0.344583
0.344558
0.344494
0.344388
0.344239
0.344047
0.343808
0.343523
0.343188
0.342803
0.342366
0.341875
0.341328
0.340724
0.340062
0.339339
0.338554
0.337705
0.336791
0.335809
0.334759
0.333637
0.332443
0.331174
0.329829
0.328406
0.326903
0.325318
0.32365
0.321895
0.320053
0.318121
0.316098
0.313981
0.311769
0.30946
0.307052
0.304543
0.301933
0.299218
0.296399
0.293473
0.290438
0.287294
0.284039
0.280673
0.277194
0.273601
0.269894
0.266073
0.262137
0.258086
0.253921
0.24964
0.245244
0.240734
0.236108
0.231369
0.226515
0.221546
0.216464
0.211268
0.205959
0.200543
0.19503
0.189432
0.183827
0.178193
0.379651
0.379458
0.379221
0.378921
0.378542
0.378082
0.377545
0.376935
0.376256
0.375512
0.374705
0.373841
0.372921
0.371951
0.370934
0.369874
0.368776
0.367643
0.366481
0.365292
0.364083
0.362857
0.361619
0.360374
0.359125
0.357878
0.356636
0.355404
0.354185
0.352984
0.351803
0.350646
0.349515
0.348413
0.347341
0.346303
0.345301
0.344336
0.34341
0.342525
0.341681
0.340879
0.340121
0.339406
0.338735
0.338108
0.337526
0.336989
0.336496
0.336049
0.335646
0.335287
0.334972
0.334701
0.334474
0.334289
0.334147
0.334046
0.333985
0.333965
0.333983
0.334039
0.334133
0.334262
0.334425
0.334622
0.334851
0.33511
0.335399
0.335716
0.336058
0.336426
0.336817
0.33723
0.337662
0.338114
0.338582
0.339065
0.339562
0.340072
0.340591
0.34112
0.341655
0.342197
0.342742
0.34329
0.343839
0.344388
0.344934
0.345477
0.346014
0.346546
0.347069
0.347583
0.348085
0.348576
0.349052
0.349514
0.349959
0.350385
0.350793
0.351179
0.351544
0.351884
0.3522
0.352489
0.352751
0.352983
0.353184
0.353353
0.353489
0.353589
0.353653
0.353678
0.353664
0.353609
0.353511
0.353369
0.353181
0.352945
0.35266
0.352325
0.351936
0.351493
0.350993
0.350436
0.34982
0.349142
0.348401
0.347595
0.346723
0.345782
0.344771
0.343688
0.34253
0.341297
0.339986
0.338596
0.337124
0.335568
0.333926
0.332197
0.330379
0.328468
0.326464
0.324365
0.322168
0.319871
0.317474
0.314974
0.312369
0.309658
0.306839
0.303911
0.300872
0.29772
0.294455
0.291075
0.28758
0.283968
0.280238
0.276391
0.272426
0.268342
0.264139
0.259818
0.255377
0.250818
0.24614
0.241342
0.236425
0.231389
0.226232
0.220955
0.215557
0.210042
0.204418
0.198691
0.192931
0.187099
0.390176
0.38996
0.389696
0.389367
0.388955
0.388459
0.387882
0.38723
0.386507
0.385717
0.384865
0.383954
0.382988
0.381972
0.380911
0.379808
0.378668
0.377496
0.376296
0.375073
0.373831
0.372575
0.37131
0.37004
0.368769
0.367502
0.366243
0.364996
0.363764
0.362552
0.361361
0.360196
0.359058
0.357949
0.356873
0.35583
0.354823
0.353854
0.352924
0.352034
0.351185
0.350378
0.349613
0.348892
0.348214
0.34758
0.34699
0.346444
0.345943
0.345486
0.345073
0.344705
0.34438
0.344099
0.343862
0.343667
0.343515
0.343404
0.343335
0.343306
0.343316
0.343365
0.343452
0.343575
0.343734
0.343927
0.344153
0.344411
0.344699
0.345016
0.345361
0.345732
0.346128
0.346548
0.346988
0.347449
0.347929
0.348425
0.348937
0.349462
0.35
0.350548
0.351104
0.351669
0.352238
0.352812
0.353389
0.353967
0.354544
0.355119
0.35569
0.356257
0.356817
0.357369
0.357911
0.358442
0.358961
0.359465
0.359955
0.360427
0.360881
0.361315
0.361728
0.362119
0.362485
0.362825
0.363138
0.363423
0.363677
0.3639
0.364089
0.364244
0.364362
0.364442
0.364483
0.364483
0.364441
0.364353
0.36422
0.364039
0.363809
0.363526
0.363191
0.362801
0.362354
0.361848
0.361282
0.360654
0.359962
0.359204
0.358379
0.357483
0.356516
0.355476
0.35436
0.353167
0.351895
0.350541
0.349103
0.34758
0.34597
0.34427
0.342478
0.340593
0.338611
0.336532
0.334353
0.332072
0.329688
0.327198
0.324601
0.321895
0.319078
0.316149
0.313105
0.309947
0.306672
0.303278
0.299766
0.296133
0.29238
0.288505
0.284507
0.280388
0.276145
0.271779
0.26729
0.262677
0.25794
0.253078
0.248092
0.24298
0.237741
0.232373
0.226877
0.221252
0.215505
0.209639
0.203715
0.197676
0.402574
0.402335
0.402045
0.401686
0.40124
0.400704
0.400086
0.39939
0.398621
0.397783
0.396882
0.395922
0.394907
0.393843
0.392734
0.391585
0.390401
0.389186
0.387946
0.386685
0.385408
0.38412
0.382825
0.381527
0.380232
0.378943
0.377664
0.376399
0.375151
0.373924
0.37272
0.371543
0.370394
0.369276
0.36819
0.367139
0.366123
0.365146
0.364207
0.363308
0.362449
0.361633
0.360858
0.360126
0.359437
0.358791
0.358189
0.35763
0.357116
0.356645
0.356219
0.355836
0.355497
0.355202
0.35495
0.354741
0.354575
0.35445
0.354367
0.354325
0.354323
0.35436
0.354435
0.354548
0.354697
0.354882
0.355101
0.355353
0.355636
0.35595
0.356293
0.356663
0.35706
0.357482
0.357927
0.358393
0.35888
0.359385
0.359908
0.360446
0.360997
0.361561
0.362136
0.36272
0.363311
0.363908
0.36451
0.365114
0.365719
0.366324
0.366928
0.367527
0.368122
0.36871
0.36929
0.369861
0.370421
0.370968
0.371501
0.372018
0.372518
0.373
0.373461
0.373901
0.374317
0.374709
0.375075
0.375412
0.37572
0.375997
0.376242
0.376452
0.376627
0.376763
0.376861
0.376918
0.376932
0.376902
0.376826
0.376701
0.376527
0.376302
0.376022
0.375688
0.375296
0.374844
0.374332
0.373757
0.373117
0.37241
0.371634
0.370788
0.369868
0.368874
0.367803
0.366653
0.365422
0.364109
0.362709
0.361223
0.359647
0.357979
0.356218
0.35436
0.352404
0.350348
0.34819
0.345928
0.343559
0.341082
0.338495
0.335796
0.332983
0.330054
0.327009
0.323845
0.32056
0.317154
0.313626
0.309973
0.306196
0.302293
0.298263
0.294107
0.289823
0.285411
0.280871
0.276202
0.271403
0.266475
0.261415
0.256222
0.250896
0.245433
0.239832
0.234091
0.228215
0.222202
0.21611
0.209861
0.416923
0.416662
0.416345
0.415953
0.41547
0.414894
0.414233
0.413491
0.412673
0.411786
0.410834
0.409822
0.408756
0.407641
0.406482
0.405285
0.404054
0.402794
0.401511
0.40021
0.398895
0.397571
0.396243
0.394916
0.393592
0.392277
0.390975
0.389688
0.38842
0.387175
0.385954
0.384761
0.383596
0.382463
0.381364
0.380299
0.37927
0.378279
0.377326
0.376413
0.37554
0.374709
0.373919
0.373171
0.372466
0.371803
0.371184
0.370607
0.370075
0.369585
0.36914
0.368738
0.368379
0.368064
0.367792
0.367563
0.367377
0.367233
0.367131
0.367069
0.367049
0.367068
0.367126
0.367222
0.367356
0.367526
0.367731
0.367971
0.368243
0.368547
0.368881
0.369245
0.369636
0.370054
0.370496
0.370962
0.37145
0.371958
0.372485
0.373029
0.373589
0.374163
0.374749
0.375346
0.375953
0.376567
0.377188
0.377813
0.378441
0.379071
0.379701
0.380329
0.380953
0.381573
0.382187
0.382792
0.383388
0.383973
0.384546
0.385104
0.385647
0.386172
0.386679
0.387165
0.387629
0.388069
0.388484
0.388872
0.389232
0.389562
0.389859
0.390123
0.390352
0.390544
0.390697
0.39081
0.39088
0.390906
0.390887
0.390819
0.390702
0.390532
0.390309
0.390031
0.389694
0.389298
0.388841
0.388319
0.387733
0.387078
0.386354
0.385558
0.384688
0.383742
0.382718
0.381613
0.380426
0.379155
0.377796
0.376349
0.37481
0.373177
0.371449
0.369622
0.367694
0.365665
0.36353
0.361289
0.358938
0.356477
0.353903
0.351213
0.348407
0.345483
0.342437
0.33927
0.335979
0.332563
0.32902
0.32535
0.32155
0.317621
0.313561
0.309369
0.305045
0.300588
0.295997
0.291272
0.286412
0.281415
0.276281
0.271007
0.265592
0.260031
0.254323
0.248464
0.242457
0.236296
0.230034
0.223579
0.433314
0.43303
0.432683
0.432257
0.431734
0.431117
0.43041
0.42962
0.428752
0.427813
0.426808
0.425743
0.424623
0.423455
0.422243
0.420994
0.419713
0.418406
0.417077
0.415732
0.414376
0.413014
0.411649
0.410287
0.408932
0.407587
0.406257
0.404944
0.403652
0.402383
0.40114
0.399925
0.39874
0.397587
0.396468
0.395384
0.394336
0.393325
0.392353
0.39142
0.390527
0.389675
0.388864
0.388094
0.387367
0.386681
0.386038
0.385438
0.384881
0.384366
0.383895
0.383468
0.383083
0.382741
0.382443
0.382187
0.381974
0.381803
0.381674
0.381587
0.38154
0.381534
0.381567
0.381639
0.38175
0.381897
0.382081
0.382299
0.382552
0.382838
0.383155
0.383503
0.38388
0.384285
0.384716
0.385172
0.385651
0.386153
0.386675
0.387216
0.387775
0.38835
0.388939
0.389541
0.390154
0.390777
0.391408
0.392045
0.392687
0.393333
0.39398
0.394628
0.395274
0.395918
0.396556
0.397189
0.397814
0.398429
0.399034
0.399626
0.400204
0.400767
0.401312
0.401838
0.402343
0.402826
0.403285
0.403718
0.404124
0.4045
0.404846
0.405159
0.405438
0.405681
0.405885
0.40605
0.406173
0.406252
0.406286
0.406272
0.406209
0.406093
0.405925
0.4057
0.405418
0.405075
0.404671
0.404203
0.403669
0.403066
0.402393
0.401647
0.400827
0.39993
0.398953
0.397895
0.396753
0.395525
0.394209
0.392802
0.391302
0.389706
0.388013
0.386219
0.384323
0.382322
0.380214
0.377996
0.375668
0.373225
0.370667
0.367991
0.365195
0.362278
0.359236
0.356069
0.352776
0.349353
0.345799
0.342114
0.338296
0.334344
0.330257
0.326033
0.321672
0.317173
0.312534
0.307756
0.302837
0.297775
0.292568
0.287215
0.281712
0.276055
0.270242
0.264267
0.25813
0.251823
0.245398
0.238743
0.451851
0.451543
0.451163
0.450699
0.450135
0.449472
0.448717
0.447876
0.446955
0.445961
0.4449
0.443778
0.442602
0.441377
0.44011
0.438806
0.437472
0.436113
0.434734
0.433342
0.43194
0.430534
0.429129
0.427728
0.426336
0.424956
0.423593
0.422248
0.420925
0.419627
0.418356
0.417114
0.415903
0.414724
0.413579
0.412469
0.411395
0.410358
0.40936
0.408401
0.407481
0.406601
0.405762
0.404963
0.404206
0.403491
0.402817
0.402186
0.401597
0.40105
0.400546
0.400085
0.399666
0.39929
0.398957
0.398666
0.398418
0.398212
0.398048
0.397925
0.397843
0.397802
0.397801
0.39784
0.397917
0.398031
0.398183
0.39837
0.398593
0.398849
0.399139
0.399459
0.399811
0.400191
0.400599
0.401034
0.401494
0.401977
0.402483
0.403009
0.403554
0.404118
0.404697
0.405292
0.405899
0.406518
0.407147
0.407784
0.408429
0.409078
0.409732
0.410388
0.411044
0.411699
0.412352
0.413
0.413643
0.414278
0.414904
0.41552
0.416123
0.416712
0.417285
0.417841
0.418378
0.418894
0.419388
0.419857
0.420301
0.420716
0.421102
0.421457
0.421778
0.422064
0.422313
0.422523
0.422692
0.422819
0.4229
0.422934
0.42292
0.422854
0.422734
0.42256
0.422327
0.422035
0.421681
0.421263
0.420779
0.420226
0.419602
0.418905
0.418133
0.417283
0.416353
0.415341
0.414244
0.41306
0.411786
0.410421
0.408961
0.407403
0.405747
0.403988
0.402125
0.400155
0.398076
0.395886
0.393582
0.391161
0.388623
0.385964
0.383182
0.380276
0.377243
0.374081
0.370789
0.367364
0.363805
0.360111
0.356279
0.352309
0.348199
0.343949
0.339556
0.33502
0.33034
0.325513
0.32054
0.315417
0.310144
0.304716
0.299131
0.293383
0.28747
0.281384
0.275125
0.268679
0.262098
0.255255
0.472652
0.472317
0.471902
0.471396
0.470786
0.470073
0.469265
0.468369
0.467391
0.466337
0.465216
0.464032
0.462794
0.461508
0.460179
0.458816
0.457423
0.456007
0.454574
0.453128
0.451676
0.450221
0.448769
0.447323
0.445888
0.444468
0.443064
0.441682
0.440322
0.438988
0.437682
0.436406
0.435161
0.433948
0.43277
0.431627
0.43052
0.42945
0.428418
0.427424
0.42647
0.425554
0.424679
0.423844
0.42305
0.422296
0.421584
0.420913
0.420283
0.419695
0.41915
0.418646
0.418184
0.417764
0.417387
0.417051
0.416758
0.416506
0.416296
0.416128
0.416
0.415913
0.415866
0.415859
0.41589
0.41596
0.416067
0.41621
0.41639
0.416604
0.416851
0.417131
0.417443
0.417785
0.418156
0.418554
0.418979
0.41943
0.419904
0.4204
0.420917
0.421454
0.422009
0.42258
0.423166
0.423766
0.424378
0.425
0.425631
0.42627
0.426914
0.427563
0.428214
0.428867
0.429519
0.430169
0.430815
0.431455
0.432089
0.432714
0.433328
0.433931
0.434519
0.435093
0.435649
0.436186
0.436702
0.437195
0.437665
0.438108
0.438523
0.438908
0.439261
0.439581
0.439864
0.44011
0.440317
0.440481
0.440602
0.440677
0.440703
0.440679
0.440603
0.440471
0.440283
0.440035
0.439726
0.439353
0.438914
0.438406
0.437828
0.437176
0.436449
0.435644
0.434758
0.43379
0.432737
0.431596
0.430364
0.42904
0.427619
0.426101
0.424482
0.42276
0.420932
0.418995
0.416948
0.414787
0.412511
0.410116
0.407601
0.404963
0.4022
0.39931
0.39629
0.393138
0.389853
0.386432
0.382874
0.379176
0.375338
0.371357
0.367231
0.362961
0.358544
0.353978
0.349263
0.344396
0.339376
0.334201
0.328868
0.323374
0.317715
0.311885
0.30588
0.299693
0.293321
0.286747
0.280024
0.273007
0.49585
0.495484
0.495028
0.494474
0.493812
0.493043
0.492176
0.491217
0.490174
0.489054
0.487864
0.486611
0.485304
0.483949
0.482552
0.481122
0.479663
0.478183
0.476688
0.475182
0.473671
0.47216
0.470654
0.469156
0.467671
0.466202
0.464751
0.463323
0.461919
0.460541
0.459192
0.457874
0.456587
0.455333
0.454113
0.452928
0.45178
0.450668
0.449593
0.448557
0.447559
0.446599
0.445679
0.444798
0.443957
0.443156
0.442395
0.441675
0.440995
0.440356
0.439758
0.439201
0.438685
0.438211
0.437778
0.437386
0.437035
0.436726
0.436458
0.436231
0.436044
0.435897
0.435791
0.435724
0.435695
0.435705
0.435753
0.435837
0.435957
0.436113
0.436302
0.436525
0.436781
0.437067
0.437383
0.437729
0.438102
0.438501
0.438926
0.439374
0.439845
0.440337
0.440849
0.441379
0.441925
0.442488
0.443064
0.443653
0.444252
0.444862
0.445479
0.446102
0.446731
0.447363
0.447996
0.44863
0.449262
0.449891
0.450515
0.451132
0.451741
0.452341
0.452929
0.453503
0.454063
0.454605
0.455129
0.455632
0.456113
0.45657
0.457
0.457402
0.457775
0.458115
0.458421
0.458691
0.458923
0.459115
0.459264
0.459368
0.459426
0.459434
0.459391
0.459295
0.459142
0.458931
0.458659
0.458324
0.457924
0.457455
0.456917
0.456305
0.455619
0.454854
0.45401
0.453082
0.45207
0.450969
0.449778
0.448493
0.447112
0.445632
0.444051
0.442366
0.440573
0.438672
0.436658
0.434529
0.432283
0.429918
0.42743
0.424818
0.422078
0.419208
0.416207
0.413072
0.4098
0.406389
0.402838
0.399145
0.395307
0.391323
0.38719
0.382909
0.378475
0.373889
0.369149
0.364251
0.359195
0.353978
0.348596
0.343046
0.337324
0.331424
0.325339
0.319063
0.312591
0.305904
0.299054
0.291881
0.52159
0.521187
0.520684
0.520075
0.519351
0.518517
0.517579
0.516547
0.515427
0.514229
0.512959
0.511626
0.510238
0.508802
0.507327
0.505819
0.504284
0.50273
0.501162
0.499587
0.498008
0.496432
0.494863
0.493304
0.49176
0.490233
0.488726
0.487243
0.485786
0.484355
0.482955
0.481584
0.480246
0.478942
0.477671
0.476436
0.475236
0.474072
0.472946
0.471856
0.470804
0.46979
0.468815
0.467877
0.466979
0.466119
0.465299
0.464517
0.463776
0.463074
0.462411
0.461789
0.461207
0.460664
0.460162
0.459701
0.459279
0.458898
0.458557
0.458256
0.457995
0.457773
0.457591
0.457447
0.457342
0.457275
0.457246
0.457253
0.457296
0.457374
0.457488
0.457634
0.457814
0.458025
0.458267
0.458539
0.45884
0.459168
0.459522
0.459902
0.460305
0.460732
0.461179
0.461647
0.462133
0.462637
0.463157
0.463691
0.464238
0.464797
0.465366
0.465944
0.466528
0.467119
0.467714
0.468311
0.468909
0.469506
0.470101
0.470692
0.471277
0.471854
0.472423
0.47298
0.473525
0.474055
0.474569
0.475065
0.47554
0.475994
0.476423
0.476827
0.477203
0.477549
0.477863
0.478143
0.478387
0.478592
0.478757
0.478878
0.478955
0.478984
0.478964
0.478891
0.478764
0.478579
0.478336
0.47803
0.47766
0.477223
0.476717
0.47614
0.475487
0.474758
0.473949
0.473058
0.472082
0.471019
0.469865
0.468617
0.467274
0.465831
0.464287
0.462639
0.460883
0.459017
0.457038
0.454943
0.452731
0.450397
0.44794
0.445357
0.442645
0.439802
0.436825
0.433712
0.43046
0.427067
0.423531
0.41985
0.416021
0.412042
0.407912
0.403629
0.39919
0.394595
0.389839
0.384923
0.379842
0.374594
0.369177
0.363584
0.357812
0.351855
0.345706
0.339356
0.332801
0.326019
0.31906
0.311752
0.550036
0.549591
0.549031
0.548354
0.547555
0.54664
0.545615
0.544492
0.543278
0.541983
0.540616
0.539185
0.5377
0.536168
0.534598
0.532996
0.531372
0.52973
0.528077
0.52642
0.524762
0.523109
0.521465
0.519834
0.51822
0.516625
0.515052
0.513504
0.511982
0.510489
0.509026
0.507594
0.506194
0.504828
0.503496
0.502198
0.500936
0.49971
0.49852
0.497366
0.496249
0.495168
0.494125
0.493119
0.49215
0.491219
0.490326
0.489471
0.488653
0.487874
0.487133
0.486431
0.485767
0.485142
0.484555
0.484008
0.483499
0.483029
0.482598
0.482206
0.481852
0.481537
0.48126
0.481022
0.480821
0.480657
0.48053
0.48044
0.480385
0.480366
0.480381
0.48043
0.480512
0.480626
0.480771
0.480947
0.481153
0.481387
0.481648
0.481936
0.482249
0.482586
0.482946
0.483328
0.483731
0.484152
0.484592
0.485048
0.48552
0.486005
0.486503
0.487012
0.48753
0.488057
0.48859
0.489128
0.48967
0.490214
0.490758
0.4913
0.49184
0.492374
0.492903
0.493423
0.493933
0.494431
0.494915
0.495384
0.495836
0.496268
0.496679
0.497066
0.497429
0.497763
0.498069
0.498343
0.498582
0.498786
0.498952
0.499077
0.499159
0.499195
0.499184
0.499123
0.499009
0.498841
0.498614
0.498328
0.497979
0.497565
0.497083
0.49653
0.495905
0.495204
0.494424
0.493564
0.492619
0.491588
0.490467
0.489254
0.487945
0.486538
0.485029
0.483416
0.481696
0.479866
0.477923
0.475864
0.473687
0.471389
0.468966
0.466416
0.463736
0.460924
0.457977
0.454892
0.451667
0.448299
0.444786
0.441125
0.437315
0.433352
0.429234
0.42496
0.420527
0.415933
0.411176
0.406253
0.401161
0.395897
0.390457
0.384837
0.379031
0.373034
0.366837
0.360431
0.353811
0.346954
0.339908
0.332488
0.582371
0.581869
0.581233
0.580467
0.579567
0.57854
0.577398
0.576151
0.57481
0.573385
0.571888
0.570328
0.568715
0.567058
0.565366
0.563646
0.561906
0.560154
0.558394
0.556633
0.554876
0.553127
0.55139
0.549669
0.547967
0.546286
0.54463
0.543
0.541397
0.539824
0.538282
0.536772
0.535294
0.533849
0.532438
0.531062
0.52972
0.528412
0.52714
0.525904
0.524702
0.523536
0.522406
0.521312
0.520253
0.51923
0.518244
0.517293
0.516378
0.5155
0.514658
0.513853
0.513084
0.512353
0.511658
0.510999
0.510378
0.509795
0.509248
0.508738
0.508266
0.507831
0.507433
0.507071
0.506746
0.506458
0.506205
0.505988
0.505806
0.505659
0.505547
0.505468
0.505422
0.505408
0.505427
0.505476
0.505556