/*--------------------------------*- C++ -*----------------------------------*\
  =========                 |
  \\      /  F ield         | OpenFOAM: The Open Source CFD Toolbox
   \\    /   O peration     | Website:  https://openfoam.org
    \\  /    A nd           | Version:  7
     \\/     M anipulation  |
\*---------------------------------------------------------------------------*/
FoamFile
{
    version     2.0;
    format      ascii;
    class       volScalarField;
    location    "1.2";
    object      alpha.water;
}
// * * * * * * * * * * * * * * * * * * * * * * * * * * * * * * * * * * * * * //

dimensions      [0 0 0 0 0 0 0];

internalField   nonuniform List<scalar> 
6000
(
0
0
0
0
0
0
0
0
0
0
0
0
0
0
0
0
0
0
0
0
0
0
0
0
0
0
0
0
0
0
0
0
0
0
0
0
0
0
0
0
0
0
0
0
0
0
0
0
0
0
0
0
0
0
0
0
0
0
0
0
0
0
0
0
0
0
0
0
0
0
0
0
0
0
0
0
0
0
0
0
0
0
0
0
0
0
0
0
0
0
0
0
0
0
0
0
0
0
0
0
0
0
0
0
0
0
0
0
0
0
0
0
0
0
0
0
0
0
0
0
0
0
0
0
0
0
0
0
0
0
0
0
0
0
0
0
0
0
0
0
0
0
0
0
0
0
0
0
0
0
0
0
0
0
0
0
0
0
0
0
0
0
0
0
0
0
0
0
0
0
0
0
0
0
0
0
0
0
0
0
0
0
0
0
0
0
0
0
0
0
0
0
0
0
0
0
0
0
0
0
0
0
0
0
0
0
0
0
0
0
0
0
0
0
0
0
0
0
0
0
0
0
0
0
0
0
0
0
0
0
0
0
0
0
0
0
0
0
0
0
0
0
0
0
0
0
0
0
0
0
0
0
0
0
0
0
0
0
0
0
0
0
0
0
0
0
0
0
0
0
0
0
0
0
0
0
0
0
0
0
0
0
0
0
0
0
0
0
0
0
0
0
0
0
0
0
0
0
0
0
0
0
0
0
0
0
0
0
0
0
0
0
0
0
0
0
0
-1.4043201162077e-70
1.7610263332623e-55
6.6500324616973e-53
6.2171183810867e-52
3.2021730392346e-51
2.922663236601e-50
1.2142472271047e-49
5.1214421862179e-49
2.1271805655965e-48
7.9817614334331e-48
4.9629062321716e-47
1.992300290847e-45
1.2875394772098e-43
4.3141665922795e-43
9.94201447592e-43
6.3585770696878e-42
7.8808215835835e-42
9.6224236034915e-42
8.9777534425334e-42
7.6584590247088e-42
6.4838201470408e-42
5.3020777581129e-42
4.036206300122e-42
2.4631889135721e-42
8.40193432832e-43
1.4092644307229e-43
1.0523145384811e-44
2.8504811839074e-45
3.0637702766127e-46
8.0908760412775e-47
1.1343290640145e-47
3.2648281968711e-48
5.9405705702845e-49
5.8597185942844e-50
1.5494627297776e-50
1.8859608510305e-51
6.8597886393894e-52
7.3287734381798e-53
1.2844174577757e-53
5.026477274403e-54
5.2043467362775e-55
1.8907387212799e-55
1.9967117051909e-56
3.4892828721816e-57
1.370468927172e-57
1.4212966971086e-58
4.9436791966945e-59
5.4020585838908e-60
9.4890453337892e-61
3.7465072740352e-61
3.875736070622e-62
1.3517365142253e-62
1.4744337725325e-63
2.571897061672e-64
1.2334728329192e-64
1.3766364665074e-65
4.1199588507074e-66
4.2319164283693e-67
7.3651515872419e-68
2.7437170244134e-68
3.0185595710706e-69
3.6099525215605e-70
9.6944868276483e-71
1.895681659163e-71
3.535413425378e-72
1.651184839108e-72
4.5760991799754e-73
1.0651623757732e-73
2.0795769150188e-74
1.5434421070078e-75
2.477375941422e-76
1.1269059558281e-76
2.9057761470571e-77
2.3048886767728e-78
3.7704823398908e-79
1.7139820986662e-79
4.7596256339413e-80
1.1066849376962e-80
2.2181307577236e-81
1.5938104110465e-82
6.3969978031345e-83
1.4840163033546e-83
6.2106207569361e-84
0
0
0
0
0
0
0
0
0
1.1377373777556e-37
8.3374650849503e-39
-1.0440487148798e-54
3.459965076383e-36
-3.0585648047313e-45
8.3523897190382e-54
0
2.6101217871994e-55
1.436293302586e-37
-9.6646171719558e-57
4.567713127599e-53
4.5018075524722e-52
2.469640138634e-51
1.1597466353201e-39
1.3444998253581e-49
3.9814377063718e-49
1.6534873009766e-48
6.3727764182774e-48
3.7857851696722e-47
1.3917537806188e-45
2.1048281314372e-44
3.8096827006259e-41
1.0812790688722e-42
3.1517585056783e-42
1.0035800227082e-40
9.9530702367131e-42
1.5128368703121e-39
1.1720219775436e-41
6.8836176452409e-42
2.4025764144112e-41
2.8991145184434e-42
2.4679815377289e-42
1.1647421459384e-42
5.7776739971519e-44
1.6390243031518e-44
1.0338211496912e-44
1.1130243712071e-45
6.8472281375896e-46
4.7322146250899e-47
4.6370571532154e-46
4.6126627180882e-48
3.8075137504649e-49
4.1841970483796e-48
1.3792559784502e-50
9.1301216687593e-49
5.2430790389803e-52
9.8557115428636e-53
1.0948941005861e-50
3.770069948989e-54
8.7806401462104e-52
1.4318585594733e-55
3.0058634289e-56
1.3939752394561e-53
1.0299532891429e-57
1.1678609154996e-54
3.8941245964581e-59
7.3225120407396e-60
1.7601758319176e-56
2.8059137356618e-61
1.355918456667e-57
1.0615625314669e-62
2.3298184437554e-62
6.1029862348775e-59
4.0433207142946e-63
3.5306470729678e-60
3.0137765685579e-66
5.6614019331847e-67
1.5375443693685e-61
1.0192458434656e-65
3.9670494973071e-69
3.3705699793487e-67
1.450358602299e-70
3.3030177314989e-66
2.9370929730856e-65
6.8962883173653e-66
5.2457923113447e-67
3.4455540111954e-66
2.0959523178271e-70
1.8993003633028e-75
3.4750617392123e-69
2.2092265603466e-69
1.5544974776586e-77
2.0388464200863e-71
1.7744683294303e-70
3.1147659711722e-71
3.9668273876135e-72
1.228349326434e-71
7.7720963102448e-76
1.8560394000047e-72
6.6367361139921e-74
1.6168116184908e-73
0
0
0
0
0
0
0
3.4676144910625e-27
1.798792492219e-25
4.4824459413503e-24
7.0747195420325e-23
7.8867705546211e-22
6.3361889719622e-21
4.0711918973676e-20
2.8020869892467e-19
2.2084861464373e-18
1.5652219765523e-17
8.987820599126e-17
4.0977790933626e-16
1.4542240535759e-15
4.0367143847074e-15
9.0122237484102e-15
1.6960454922072e-14
2.8463522848833e-14
4.4449665388042e-14
6.4795432581093e-14
8.3496186144038e-14
8.9849801845261e-14
8.875882334358e-14
8.3522130514296e-14
7.1448849892679e-14
5.1957990083171e-14
3.0251380058723e-14
1.3193867916257e-14
4.1951604692449e-15
1.0573101958662e-15
2.586705694283e-16
7.1691703206158e-17
2.2531221864994e-17
7.5713099993044e-18
2.6034079028371e-18
8.9513212429238e-19
3.0399760021749e-19
1.0107235821654e-19
3.2608335516353e-20
1.012716066824e-20
3.0170120298999e-21
8.6520947560004e-22
2.4102381188432e-22
6.5869279718615e-23
1.7775653477631e-23
4.748229009694e-24
1.2555677014374e-24
3.2858831677785e-25
8.5134484606603e-26
2.1854129558654e-26
5.5629283801701e-27
1.4051452273737e-27
3.5238892919887e-28
8.7780675480445e-29
2.1728142101123e-29
5.3462790260788e-30
1.3080717473968e-30
3.1834260324793e-31
7.7083470370554e-32
1.8575497634931e-32
4.4558713855205e-33
1.0642168698192e-33
2.5311515038083e-34
5.9961914444053e-35
1.4150614752278e-35
3.3272510525881e-36
7.7959603691362e-37
1.8204829115015e-37
4.2373257894222e-38
9.8318950679968e-39
2.2744240440618e-39
5.2461446610132e-40
1.2066653584075e-40
2.7679094615044e-41
6.3324797464889e-42
1.4450703685157e-42
3.2895150704513e-43
7.4702497789269e-44
1.6925041103965e-44
3.8260018672927e-45
8.6299742645456e-46
1.9424480278944e-46
4.3630517073818e-47
9.7804008307519e-48
2.1881218109811e-48
4.8860405790312e-49
1.0890167849889e-49
2.4228395234421e-50
5.3807523775999e-51
1.1930323933427e-51
2.6379260054212e-52
5.8961989033889e-53
1.1454162259649e-53
4.6036435057553e-54
0
0
0
0
0
0
3.2014267256352e-27
2.3904323211115e-25
8.1227848101693e-24
1.7288141466289e-22
2.5964983732081e-21
2.9284161163664e-20
2.4997545771754e-19
1.637400494779e-18
8.7947199246363e-18
4.5069571212579e-17
3.0287111549664e-16
2.2397712562419e-15
1.2019365559501e-14
5.3115141747794e-14
1.6802378763369e-13
3.376987744772e-13
5.0709201338759e-13
6.9662581051125e-13
9.8603280715141e-13
1.4355187871162e-12
1.9413453848053e-12
2.1844560712049e-12
2.1729924038683e-12
2.0633458650987e-12
1.7842890794937e-12
1.3112152504351e-12
7.7095113587241e-13
3.4215833248027e-13
1.1381014014957e-13
3.1477248874267e-14
8.7303550555762e-15
2.7170422630122e-15
9.3630699576941e-16
3.3940965864606e-16
1.2470260173322e-16
4.5542154261813e-17
1.6380441389815e-17
5.7665801715416e-18
1.9714811563092e-18
6.4838215090757e-19
2.0367226466578e-19
6.1081196184352e-20
1.7615611129468e-20
4.9410725520633e-21
1.3615520755953e-21
3.7064696340355e-22
9.9838516947031e-23
2.6607098608356e-23
7.0149650216083e-24
1.8306218525415e-24
4.732435301574e-25
1.2129768520232e-25
3.0846230133335e-26
7.7869628901016e-27
1.9523008536804e-27
4.8631113111151e-28
1.2040169353082e-28
2.9638087696855e-29
7.2560716411274e-30
1.7672945118403e-30
4.2833516943159e-31
1.0333041708488e-31
2.4816261027249e-32
5.9346494499947e-33
1.4134638491981e-33
3.3533570096992e-34
7.9259192386237e-35
1.866632616002e-35
4.3809443548907e-36
1.024784972316e-36
2.3894986918129e-37
5.5544309607275e-38
1.2872942065203e-38
2.9748532990919e-39
6.8555820639284e-40
1.5756269653401e-40
3.6118516147264e-41
8.2586487420521e-42
1.8837534094708e-42
4.2865386737027e-43
9.731665924355e-44
2.2044184715226e-44
4.9825835489432e-45
1.1238150948465e-45
2.5295291721605e-46
5.6821515186799e-47
1.2739044982599e-47
2.8505842873442e-48
6.3667968919967e-49
1.4195830662962e-49
3.1562903073345e-50
7.0917127331235e-51
1.3878988624488e-51
5.5839352190104e-52
0
0
0
0
0
1.3905798976714e-27
1.4443945053638e-25
6.2456489230373e-24
1.6183440434901e-22
2.931466722161e-21
4.024078994526e-20
4.3648550229891e-19
3.802970288964e-18
2.6622963052717e-17
1.4691964490787e-16
6.5070266017408e-16
2.8742104647413e-15
1.5216094522522e-14
1.7233067436761e-13
1.4551788026006e-12
5.4194604529729e-12
1.2746319585869e-11
1.2587880538301e-11
1.1862018257899e-11
1.2933062924423e-11
1.6319579569161e-11
2.1439733993908e-11
2.5132728144882e-11
2.5581612842648e-11
2.4521586651138e-11
2.1020217046431e-11
1.4987742119018e-11
8.4489688459293e-12
3.6493576142424e-12
1.2503804652898e-12
3.8797684181331e-13
1.2628963324034e-13
4.5264215892845e-14
1.7345849923744e-14
6.8251432141299e-15
2.6850644220485e-15
1.0431194102568e-15
3.985814501571e-16
1.4938714716884e-16
5.4546663866622e-17
1.9184840290162e-17
6.4244157815416e-18
2.0362087930424e-18
6.1302977911239e-19
1.773843814639e-19
5.0024367381536e-20
1.3888630581335e-20
3.812606082773e-21
1.0353910052577e-21
2.7804584539049e-22
7.383932655547e-23
1.9405512997914e-23
5.0516854296494e-24
1.3037328864439e-24
3.3378782768829e-25
8.4822568267204e-26
2.1404692978084e-26
5.3659023552732e-27
1.3368336529521e-27
3.3110273568625e-28
8.1552062608172e-29
1.9981013970686e-29
4.8710594408108e-30
1.1818335949688e-30
2.8543794437705e-31
6.8640071274791e-32
1.6437510066933e-32
3.9206890180668e-33
9.3159535359153e-34
2.2054464298083e-34
5.2027314043857e-35
1.2231774857425e-35
2.8663198110782e-36
6.6955699737741e-37
1.5592862841607e-37
3.6206327410053e-38
8.3831220106589e-39
1.9356634802779e-39
4.4575332586131e-40
1.0238490109909e-40
2.3457833616127e-41
5.3614580922595e-42
1.2225080538162e-42
2.78114497968e-43
6.3128652542996e-44
1.4298385794826e-44
3.2316960371043e-45
7.2892231578609e-46
1.6408267814163e-46
3.6863251754389e-47
8.2667885978591e-48
1.8485372598906e-48
4.1758338036393e-49
8.2331010511991e-50
3.3175729604389e-50
0
0
0
0
0
3.7091892324033e-26
2.6644186533635e-24
9.1246057191383e-23
2.0011238927065e-21
3.1825655609283e-20
3.9402855654404e-19
3.9726611008846e-18
3.3386144182163e-17
2.3579482178911e-16
1.3778389744272e-15
6.4337390047606e-15
2.4327319396272e-14
8.6954824098297e-14
4.7788178252238e-13
3.2857432349137e-12
6.9439501059112e-11
8.5628609955671e-10
1.0429788685673e-09
8.6005943495289e-10
6.0769621995813e-10
4.3944026067836e-10
3.6549396144866e-10
3.3871673464285e-10
3.1346133708785e-10
2.7047376259109e-10
2.0147619628884e-10
1.2013893581663e-10
5.5451096932421e-11
2.0709193620667e-11
7.0925370403985e-12
2.5462165785994e-12
1.0040564889487e-12
4.228212805931e-13
1.8293062115842e-13
7.9128584549996e-14
3.3733186841676e-14
1.4109432059391e-14
5.7920514273403e-15
2.3324570148168e-15
9.1639024177094e-16
3.472938488166e-16
1.2517017757032e-16
4.2433254584019e-17
1.3504605126932e-17
4.0720391317871e-18
1.1821600024816e-18
3.3548018427753e-19
9.3897840801725e-20
2.5991829422847e-20
7.1140832637088e-21
1.9244752245168e-21
5.1469740772273e-22
1.3621123071947e-22
3.570383233482e-23
9.2771241228368e-24
2.3910422875243e-24
6.1159557796215e-25
1.5532617448794e-25
3.9184145635828e-26
9.8226358999585e-27
2.4476479461811e-27
6.06471511514e-28
1.4946428123668e-28
3.664750049742e-29
8.9420335562725e-30
2.1717511218298e-30
5.2511583692653e-31
1.2643123433021e-31
3.0316902411858e-32
7.2413263793351e-33
1.7231421989785e-33
4.0856042961698e-34
9.653442036572e-35
2.2732840109397e-35
5.3360809762516e-36
1.248639022927e-36
2.913016596778e-37
6.7761623453958e-38
1.5718109008423e-38
3.6360606689659e-39
8.3890529521846e-40
1.9305476533509e-40
4.4316651378283e-41
1.0148540603709e-41
2.3185710629542e-42
5.2850110163863e-43
1.2020076807732e-43
2.7279121686602e-44
6.1778934195915e-45
1.3962320603245e-45
3.149526572604e-46
7.083545783011e-47
1.6089851126257e-47
3.195634415366e-48
1.290287863972e-48
0
0
0
0
5.0233347246623e-40
4.6524142440634e-25
2.8713304635527e-23
8.6950895182267e-22
1.7183494984254e-20
2.4908056914527e-19
2.8275166281374e-18
2.630953336735e-17
2.0674641085728e-16
1.4026018535924e-15
8.1767645250877e-15
4.0318291219763e-14
1.602978116593e-13
5.1131357141189e-13
1.5027404115919e-12
5.27964765757e-12
5.1743811088666e-11
6.1024778876625e-10
1.8144815446403e-08
4.3033742341546e-08
3.1567981173448e-08
1.8735744476489e-08
1.1330566157216e-08
7.5178544773764e-09
5.6335508173697e-09
4.2284730515713e-09
2.7847348263898e-09
1.3884961878459e-09
4.4691216549502e-10
9.3270267081365e-11
2.3318789129698e-11
9.5855411210796e-12
4.7037351461858e-12
2.3679997848188e-12
1.1751522219951e-12
5.688667177116e-13
2.6799162343786e-13
1.2302076321364e-13
5.5162396981493e-14
2.4188920874434e-14
1.034003917844e-14
4.2675937573771e-15
1.6755112079726e-15
6.1642209868252e-16
2.1074283889076e-16
6.7191986282395e-17
2.0281578934556e-17
5.9099787953951e-18
1.6882441497182e-18
4.7625929658565e-19
1.3286793572606e-19
3.6633385325474e-20
9.9786779248129e-21
2.6867959837967e-21
7.1578553464132e-22
1.8886029484518e-22
4.9391592294923e-23
1.2811255972211e-23
3.297490703024e-24
8.4261766476804e-25
2.138537638477e-25
5.3927538003068e-26
1.351649634922e-26
3.3683403282886e-27
8.3481898326651e-28
2.0583005601048e-28
5.0497709844428e-29
1.233045221013e-29
2.9972390836048e-30
7.2540883662471e-31
1.7484025486095e-31
4.1972984941138e-32
1.0037740551601e-32
2.3916807764492e-33
5.6784661488921e-34
1.3436162369947e-34
3.1687521432362e-35
7.4493693743621e-36
1.7458845894976e-36
4.0796256843628e-37
9.5055106786476e-38
2.2086165293914e-38
5.1179052075542e-39
1.1828417388069e-39
2.7268245176296e-40
6.2706982659713e-41
1.4385775155589e-41
3.2925952015523e-42
7.5189780568815e-43
1.7132527831639e-43
3.8953650668169e-44
8.838994427174e-45
1.999601622201e-45
4.5672845991672e-46
9.1371706957334e-47
3.6980846752557e-47
0
0
0
0
-2.5200328436385e-52
3.6295405587388e-24
2.0764501440819e-22
5.8707359588573e-21
1.088577963668e-19
1.483947188694e-18
1.5818476399975e-17
1.3755952091695e-16
1.0068475854939e-15
6.3830985977373e-15
3.5618906860421e-14
1.7343654636663e-13
7.2729339270256e-13
2.5037497184526e-12
6.3570435092596e-12
1.2793024680249e-11
3.5672546419617e-11
3.7045654120619e-10
8.036107482068e-09
1.0662450040751e-07
7.8656659520457e-07
6.2743337268253e-07
3.6057313485848e-07
2.0410422575829e-07
1.1817472078486e-07
7.381536697626e-08
4.4162067559089e-08
2.1603779955101e-08
6.9376921396338e-09
1.0980681511033e-09
8.323413425054e-11
1.9496249156578e-11
1.248847939703e-11
8.18869659537e-12
4.7460750963961e-12
2.6022765349321e-12
1.3844611503709e-12
7.1376676716953e-13
3.5689500063231e-13
1.7346841702486e-13
8.1929188863254e-14
3.7343986335694e-14
1.6199897219943e-14
6.5723255141765e-15
2.4579390327669e-15
8.4385426837449e-16
2.6868006702131e-16
8.104653004551e-17
2.3690168734468e-17
6.8101822855302e-18
1.9356523512299e-18
5.4396179526243e-19
1.5098607188045e-19
4.1388447394721e-20
1.1213222308194e-20
3.0057806263383e-21
7.97956811744e-22
2.0995481872527e-22
5.4784661750749e-23
1.4184179854584e-23
3.6455676247859e-24
9.3052392798656e-25
2.3597184198649e-25
5.9472485787526e-26
1.4901649822775e-26
3.7131454884209e-27
9.2035501530004e-28
2.2697695069685e-28
5.5708307514929e-29
1.3610105314414e-29
3.3104815660298e-30
8.0184037228745e-31
1.9343062335165e-31
4.6480602727381e-32
1.1127348637794e-32
2.6542709559888e-33
6.3094128116351e-34
1.4947752890242e-34
3.5298497199059e-35
8.3095419887078e-36
1.9502178663393e-36
4.5636942832548e-37
1.0649207482668e-37
2.47812528749e-38
5.7513583764759e-39
1.3313522896729e-39
3.0741387434579e-40
7.080971283449e-41
1.6271612832366e-41
3.7304843324517e-42
8.5333650290414e-43
1.9478722062842e-43
4.432551178841e-44
1.0181306056609e-44
2.0515273556917e-45
8.3255783841289e-46
0
0
0
0
0
2.0157389602188e-23
1.1049371508805e-21
2.9862859938537e-20
5.2901996228341e-19
6.8901444230898e-18
7.0224472202223e-17
5.8240262759177e-16
4.0354295403803e-15
2.3933669734995e-14
1.2463755629112e-13
5.7781766155413e-13
2.3940212130905e-12
8.6883923896231e-12
2.5367176472861e-11
4.6012373127044e-11
6.6843143155571e-11
1.8423321111732e-10
2.2608520287694e-09
5.970679848726e-08
6.3808211891078e-07
7.0534047408389e-06
8.3523195548725e-06
6.2506430449433e-06
3.1979574842591e-06
1.4204329146382e-06
7.2705131443819e-07
3.6907053902549e-07
1.3646994380749e-07
2.683063577063e-08
1.8456601291932e-09
1.0715960461708e-10
2.9562862191526e-11
1.6072548741747e-11
1.1564742907804e-11
7.9714971845903e-12
4.8756539905319e-12
2.8355922965977e-12
1.6019316117415e-12
8.7810873192027e-13
4.6643585987421e-13
2.3869669872012e-13
1.1618512098655e-13
5.2804172266316e-14
2.1982805065555e-14
8.2815119629814e-15
2.8301821536834e-15
8.945701080936e-16
2.6910924987357e-16
7.8940974982356e-17
2.2855709761831e-17
6.5459805144443e-18
1.8520425660716e-18
5.1715611353905e-19
1.4257617069921e-19
3.8849735582375e-20
1.0474364082022e-20
2.7967804328301e-21
7.4009464811979e-22
1.94209130174e-22
5.0562848586488e-23
1.306706260596e-23
3.3534756780133e-24
8.549718091659e-25
2.1662116678359e-25
5.4560931845702e-26
1.3665385206057e-26
3.4043809374025e-27
8.4379762085438e-28
2.0812381257969e-28
5.1095265560825e-29
1.2488216635021e-29
3.0392090261345e-30
7.3660595760218e-31
1.7782533906953e-31
4.2766198381468e-32
1.0247478417729e-32
2.4468076971176e-33
5.8224107379111e-34
1.3809457906241e-34
3.2648931607484e-35
7.6952901945596e-36
1.8083705148244e-36
4.2373728096897e-37
9.9012755800193e-38
2.3073170364805e-38
5.3626528788261e-39
1.2432010029658e-39
2.8749059716327e-40
6.6321870852158e-41
1.5263920692947e-41
3.5052333102128e-42
8.0239323032296e-43
1.8535288097632e-43
3.7616759016685e-44
1.5311303324693e-44
0
0
0
0
0
8.5767042623192e-23
4.5838715514744e-21
1.2043914132274e-19
2.0685674116852e-18
2.6091541038453e-17
2.5645235864039e-16
2.0399021135737e-15
1.3492752160147e-14
7.5850523551643e-14
3.6950141809785e-13
1.5901563410998e-12
6.1881112909898e-12
2.2455820833635e-11
7.102640789677e-11
1.7646244205179e-10
2.268835914684e-10
2.7552799056581e-10
8.3091654521135e-10
1.4641222371999e-08
3.2209218039416e-07
4.6923366350519e-06
5.8445256387908e-05
7.4378458479064e-05
4.8658219966852e-05
2.5984042342314e-05
1.3815032986443e-05
7.0802510142851e-06
2.9338444256205e-06
7.4681869945736e-07
7.8420400684639e-08
2.8661840818445e-09
3.2094525880779e-10
8.9354712271711e-11
2.6016526184689e-11
1.5095473290712e-11
1.1536827020406e-11
8.2465370834458e-12
5.2774750457096e-12
3.252862949912e-12
1.9589620993885e-12
1.1393202246706e-12
6.3022767440581e-13
3.2497544983039e-13
1.5268845897215e-13
6.4121164926614e-14
2.3920710640538e-14
8.0425421860933e-15
2.5154492103443e-15
7.5678407506663e-16
2.2359999515465e-16
6.5302353411987e-17
1.8840602247356e-17
5.3625234291067e-18
1.5056070962388e-18
4.1736160413297e-19
1.1436092376432e-19
3.1006793071571e-20
8.3255118471846e-21
2.2153116184549e-21
5.8449765970589e-22
1.5299670522777e-22
3.9750102267421e-23
1.0255039169997e-23
2.6281357230287e-24
6.6930286109374e-25
1.6943438521613e-25
4.2649324838403e-26
1.0677556624007e-26
2.6594319224516e-27
6.5911786837145e-28
1.6258747855829e-28
3.9925181184231e-29
9.761634003097e-30
2.376778044261e-30
5.76388084072e-31
1.3924094544963e-31
3.351242329203e-32
8.036911779514e-33
1.9207519306303e-33
4.5751270892046e-34
1.0862582473291e-34
2.5710270301089e-35
6.06690200013e-36
1.4274305534275e-36
3.3489561607708e-37
7.8355096365003e-38
1.828367048021e-38
4.2553099448047e-39
9.878766466905e-40
2.2877319328431e-40
5.2857248653299e-41
1.2172749602402e-41
2.8281433146925e-42
5.7809505274105e-43
2.3607003204112e-43
0
0
0
0
0
2.8923193973564e-22
1.5276720659947e-20
3.9556839893348e-19
6.6769952945466e-18
8.2344542476816e-17
7.9011239072541e-16
6.1290866456914e-15
3.9354573691869e-14
2.1156513139157e-13
9.6879186256933e-13
3.8584184235212e-12
1.3653090392324e-11
4.4918406406831e-11
1.4411321306055e-10
4.3919029354461e-10
9.8466064521112e-10
1.2991890227468e-09
1.6923169739278e-09
6.9515770925917e-09
9.0591946230802e-08
2.0289500112564e-06
2.2148075856491e-05
0.00020171446706982
0.00057054274618425
0.0004007347175573
0.00023169512070763
0.0001329960843049
6.3636544856768e-05
2.055040506992e-05
3.1584397456534e-06
1.4169567521971e-07
7.8820450990749e-09
1.7451699930265e-09
3.6368990634485e-10
8.1956890938762e-11
2.4516509853188e-11
1.5557698093688e-11
1.2593415599597e-11
9.4380470048289e-12
6.4327262971358e-12
4.2202536872589e-12
2.6553484826538e-12
1.5611342999298e-12
8.3325793983722e-13
3.9328471035964e-13
1.6200232550656e-13
5.8799638254106e-14
1.9405181964819e-14
6.0517727238835e-15
1.8346522020362e-15
5.4749796332716e-16
1.6122137291073e-16
4.6813524719445e-17
1.3399154589236e-17
3.7826855214528e-18
1.0544225182678e-18
2.9054379451502e-19
7.9215795050583e-20
2.1387522356593e-20
5.7220104549698e-21
1.5178582935106e-21
3.9942623889716e-22
1.0432076373806e-22
2.7053280226513e-23
6.9687162994109e-24
1.7837034868833e-24
4.5380526065603e-25
1.147946397543e-25
2.8879972895878e-26
7.2277597819712e-27
1.7998771247403e-27
4.4607443675637e-28
1.1004838021592e-28
2.703039357563e-29
6.6113271717895e-30
1.6105075991671e-30
3.9078743694576e-31
9.44678163263e-32
2.2753630411751e-32
5.4612962345142e-33
1.3063830251699e-33
3.1147540068218e-34
7.402892194588e-35
1.7540707549894e-35
4.1438315586982e-36
9.7612529444111e-37
2.292950902278e-37
5.3716170398973e-38
1.2550770419252e-38
2.9249595689956e-39
6.8001815591065e-40
1.5756860282751e-40
3.6824313806973e-41
7.581855348834e-42
3.1070410263771e-42
0
0
0
7.3742823110799e-53
7.7471002191512e-37
7.6971265036912e-22
4.0704472209466e-20
1.0500814728692e-18
1.7600824357651e-17
2.1450404221046e-16
2.0311124649629e-15
1.5527672295452e-14
9.7718522691175e-14
5.1815706225557e-13
2.3285981011966e-12
8.7941437850864e-12
2.8444107845253e-11
8.2276387035644e-11
2.2997182355983e-10
7.260477666768e-10
2.8558642539509e-09
9.0684173740632e-09
1.7820888898218e-08
2.9987151365473e-08
9.8823728683002e-08
8.1782143661259e-07
7.4016415084538e-06
0.00010063335147291
0.00076536630666098
0.0036480556420303
0.0031308446023802
0.0021132594573454
0.0012607531441789
0.00050757150529542
0.00010493838278844
6.725809600065e-06
2.3574928345252e-07
4.269952303122e-08
9.3990992366891e-09
1.7813828838185e-09
3.4987992627501e-10
8.0056328157113e-11
2.4738150453327e-11
1.8457417615555e-11
1.6197551564598e-11
1.2737071952108e-11
9.1146540110112e-12
6.0572717120978e-12
3.6407913397024e-12
1.9197599130051e-12
8.7555527192235e-13
3.4767658364e-13
1.2332044541306e-13
4.0485109213035e-14
1.270628372138e-14
3.890274755374e-15
1.1714159247654e-15
3.4745281853582e-16
1.0150816263296e-16
2.921990334207e-17
8.2955480989972e-18
2.3254690603739e-18
6.4439551110727e-19
1.7667467804867e-19
4.7963789312833e-20
1.2902095523112e-20
3.4408913180294e-21
9.1028044610537e-22
2.3899002761798e-22
6.2297604547339e-23
1.6129431828093e-23
4.1493188560309e-24
1.0609259789077e-24
2.6969486699198e-25
6.8180160947792e-26
1.7145506617908e-26
4.2899336950123e-27
1.0681996606464e-27
2.6475423580953e-28
6.5328560170451e-29
1.6051240758033e-29
3.9276271283999e-30
9.5726972000492e-31
2.3242511871988e-31
5.62257153442e-32
1.3553305028377e-32
3.2558598412097e-33
7.7955280213951e-34
1.8605062660782e-34
4.4265610006958e-35
1.0500093237368e-35
2.4834235553451e-36
5.8570231152355e-37
1.3775506482951e-37
3.231274045725e-38
7.5603798406545e-39
1.7628855692515e-39
4.1448334679045e-40
8.5968050807108e-41
3.5364164115777e-41
0
0
0
1.9749041152277e-51
2.9663414763095e-36
1.4681454521642e-21
7.9070565080346e-20
2.0628034415954e-18
3.4787858151647e-17
4.2517873895029e-16
4.018316139778e-15
3.0492230478755e-14
1.9010001964157e-13
9.9420647555969e-13
4.381476093732e-12
1.6662397391497e-11
5.3881417126047e-11
1.4611339022351e-10
3.7326197394803e-10
1.1776689715942e-09
5.7330299519563e-09
3.3480988843672e-08
1.3984987105524e-07
3.3319113812066e-07
6.6982388203214e-07
1.9235440377205e-06
1.0438814419463e-05
8.2921485802932e-05
0.00070230429631012
0.0049853396682443
0.025121868522849
0.033823499337333
0.0270474286814
0.013160959890838
0.0028988458690929
0.00015565772960189
5.5640917349923e-06
1.1396143696239e-06
2.4285015407639e-07
4.5594332455975e-08
8.5764633937466e-09
1.6322539082485e-09
3.2330591295571e-10
7.7863156258042e-11
2.7508922828204e-11
2.6757792442132e-11
2.5584532238029e-11
1.9930593788723e-11
1.3057691075572e-11
7.5295645667283e-12
3.7966233081642e-12
1.6671417550635e-12
6.4530499437396e-13
2.2634487349426e-13
7.4394853803829e-14
2.3535402485916e-14
7.2732616922477e-15
2.2079014382452e-15
6.5929626103104e-16
1.9376407923838e-16
5.6095937329388e-17
1.6016295409553e-17
4.5153169073788e-18
1.2582736740477e-18
3.4690903014064e-19
9.4698581190697e-20
2.561233368877e-20
6.8673660187273e-21
1.8264052642964e-21
4.8203362659401e-22
1.2630422411167e-22
3.2869140675557e-23
8.4985157337474e-24
2.183851287381e-24
5.5790152329596e-25
1.4173119036667e-25
3.5814294848362e-26
9.0039260338801e-27
2.2526103487242e-27
5.6092700944109e-28
1.3905104529735e-28
3.4321471050855e-29
8.4363085657897e-30
2.0653833629008e-30
5.0370145087297e-31
1.2238521673483e-31
2.962944074728e-32
7.1484031449945e-33
1.7188388814009e-33
4.1195391543745e-34
9.8422353554322e-35
2.3442964175101e-35
5.5673027970286e-36
1.3183443278359e-36
3.1131335866153e-37
7.3319700345346e-38
1.7207370657525e-38
4.0709530313017e-39
8.5070718587679e-40
3.5139484741727e-40
0
0
0
1.6512085789103e-52
2.4531344824548e-52
1.7470714184287e-21
9.6521747169591e-20
2.5732498959775e-18
4.4163574497949e-17
5.48923892291e-16
5.2471010085676e-15
4.0031903516216e-14
2.5011678374562e-13
1.2959585673363e-12
5.6449353020316e-12
2.0825970599582e-11
6.6065281497657e-11
1.92103576796e-10
5.617598024329e-10
2.2029356680334e-09
1.2548596310313e-08
8.0012455884591e-08
4.8893165494724e-07
2.2470372665077e-06
6.18959943943e-06
1.4417914183644e-05
4.3520888934121e-05
0.00019954287156212
0.001223254479891
0.0082487199316642
0.054132126622158
0.26462467159642
0.44560415984335
0.29852747217145
0.072378823165567
0.0038395695411487
0.00014691886676508
3.0169575011553e-05
6.0248451533147e-06
1.1311686313446e-06
2.1237675372522e-07
3.9906849207213e-08
7.5246983144501e-09
1.4422024313983e-09
2.9449634773494e-10
7.7453388257788e-11
5.3771911664743e-11
4.9030654679642e-11
3.8751745139105e-11
2.4689734442539e-11
1.3591614750939e-11
6.5591973517618e-12
2.7806994042641e-12
1.0549094919602e-12
3.6802362129162e-13
1.2146035554666e-13
3.8729733048215e-14
1.2066686929426e-14
3.6892832910915e-15
1.1085346858285e-15
3.276775601603e-16
9.5400842145333e-17
2.7392235470777e-17
7.7660030448218e-18
2.1762856391101e-18
6.0334696949797e-19
1.656083243519e-19
4.5035103395432e-20
1.2140369909173e-20
3.2460486383503e-21
8.6124698855269e-22
2.2684910697645e-22
5.9340706263694e-23
1.542158675576e-23
3.9829722437246e-24
1.022626013293e-24
2.6108195885287e-25
6.6297523516231e-26
1.6748654146063e-26
4.210358631179e-27
1.0534225879853e-27
2.6236890137234e-28
6.5061596377035e-29
1.6066128419944e-29
3.9512907012141e-30
9.6799018409633e-31
2.3624705824896e-31
5.7448830232156e-32
1.3920921594628e-32
3.3618365392104e-33
8.091967325122e-34
1.9415349225604e-34
4.6439995898077e-35
1.1074788870838e-35
2.6333614916034e-36
6.2443550097119e-37
1.4753450957974e-37
3.5129393705327e-38
7.3976237778233e-39
3.0693326774832e-39
0
0
0
1.6686096554077e-52
2.096991639173e-52
1.6936802761492e-21
9.4229460475436e-20
2.5276201101482e-18
4.3614721437215e-17
5.4482611257549e-16
5.2301287375082e-15
4.0036934913892e-14
2.5069526906481e-13
1.2997563887078e-12
5.6553434481136e-12
2.0741156869333e-11
6.5340771260218e-11
1.8572510394238e-10
6.0083363847444e-10
3.2048912989834e-09
2.3044800830005e-08
1.6997839825861e-07
1.1450546682734e-06
6.8946953117926e-06
3.4078384410794e-05
0.00011075179456889
0.00029742830561637
0.00096868926308336
0.0043291684221872
0.024189486552081
0.16385295130311
0.67595734365261
0.93185819950683
0.89630088313399
0.66484981819112
0.186627785098
0.012329346396365
0.0005638647360426
0.00011972162225045
2.3390473227017e-05
4.4162039683613e-06
8.3363111510725e-07
1.5738590473803e-07
2.9757778800716e-08
5.6715183475931e-09
1.1137336897138e-09
2.6086697229908e-10
9.5373086370769e-11
8.384500966681e-11
6.7671988407558e-11
4.1232402003033e-11
2.1539535532518e-11
9.985422487911e-12
4.1172996266998e-12
1.5380164541887e-12
5.3444509831597e-13
1.770632990376e-13
5.6854191897852e-14
1.7839566292621e-14
5.488821864653e-15
1.6587088558826e-15
4.9301042680126e-16
1.4432718706168e-16
4.1670681122026e-17
1.1880078886953e-17
3.3477626145499e-18
9.3328286219948e-19
2.575861594945e-19
7.0432112188536e-20
1.9090364578315e-20
5.131949378293e-21
1.3689301553188e-21
3.6249099839465e-22
9.5323318995341e-23
2.4902391460338e-23
6.4649291041154e-24
1.6683860683527e-24
4.2811302766864e-25
1.0925953538033e-25
2.7739654782699e-26
7.0077409453099e-27
1.7618877410807e-27
4.4094419930877e-28
1.0986791095965e-28
2.725911068651e-29
6.7355550140667e-30
1.6577507199787e-30
4.0645149143913e-31
9.928828027401e-32
2.4167960225761e-32
5.8625265666561e-33
1.4173590110021e-33
3.4156238715065e-34
8.2053703404392e-35
1.9651788745982e-35
4.6930306271382e-36
1.1165779970503e-36
2.676556886551e-37
5.6811722979348e-38
2.3686031379405e-38
0
0
0
2.2655634763695e-52
2.6810048147703e-52
1.4258982389098e-21
8.0894998374054e-20
2.2091194519688e-18
3.8738869085397e-17
4.906298819303e-16
4.7666792785995e-15
3.6871639721195e-14
2.3258670853918e-13
1.2128539974552e-12
5.2885378781758e-12
1.9339320624966e-11
6.0338438637177e-11
1.6933551365419e-10
5.6242831341042e-10
3.1599103510879e-09
2.4965455763236e-08
2.1157642886883e-07
1.7551508083046e-06
1.3923905931444e-05
9.0667965869304e-05