/*--------------------------------*- C++ -*----------------------------------*\
  =========                 |
  \\      /  F ield         | OpenFOAM: The Open Source CFD Toolbox
   \\    /   O peration     | Website:  https://openfoam.org
    \\  /    A nd           | Version:  7
     \\/     M anipulation  |
\*---------------------------------------------------------------------------*/
FoamFile
{
    version     2.0;
    format      ascii;
    class       surfaceScalarField;
    location    "1.2";
    object      alphaPhi0.water;
}
// * * * * * * * * * * * * * * * * * * * * * * * * * * * * * * * * * * * * * //

dimensions      [0 3 -1 0 0 0 0];

internalField   nonuniform List<scalar> 
11840
(
0
0
0
0
0
0
0
0
0
0
0
0
0
0
0
0
0
0
0
0
0
0
0
0
0
0
0
0
0
0
0
0
0
0
0
0
0
0
0
0
0
0
0
0
0
0
0
0
0
0
0
0
0
0
0
0
0
0
0
0
0
0
0
0
0
0
0
0
0
0
0
0
0
0
0
0
0
0
0
0
0
0
0
0
0
0
0
0
0
0
0
0
0
0
0
0
0
0
0
0
0
0
0
0
0
0
0
0
0
0
0
0
0
0
0
0
0
0
0
0
0
0
0
0
0
0
0
0
0
0
0
0
0
0
0
0
0
0
0
0
0
0
0
0
0
0
0
0
0
0
0
0
0
0
0
0
0
0
0
0
0
0
0
0
0
0
0
0
0
0
0
0
0
0
0
0
0
0
0
0
0
0
0
0
0
0
0
0
0
0
0
0
0
0
0
0
0
0
0
0
0
0
0
0
0
0
0
0
0
0
0
0
0
0
0
0
0
0
0
0
0
0
0
0
0
0
0
0
0
0
0
0
0
0
0
0
0
0
0
0
0
0
0
0
0
0
0
0
0
0
0
0
0
0
0
0
0
0
0
0
0
0
0
0
0
0
0
0
0
0
0
0
0
0
0
0
0
0
0
0
0
0
0
0
0
0
0
0
0
0
0
0
0
0
0
0
0
0
0
0
0
0
0
0
0
0
0
0
0
0
0
0
0
0
0
0
0
0
0
0
0
0
0
0
0
0
0
0
0
0
0
0
0
0
0
0
0
0
0
0
0
0
0
0
0
0
0
0
0
0
0
0
0
0
0
0
0
0
0
0
0
0
0
0
0
0
0
0
0
0
0
0
0
0
0
0
0
0
0
0
0
0
0
0
0
0
0
0
0
0
0
0
0
0
0
0
0
0
0
0
0
0
0
0
0
0
0
0
0
0
0
0
0
0
0
0
0
0
0
0
0
0
0
0
0
0
0
0
0
0
0
0
0
0
0
0
0
0
0
0
0
0
0
0
0
0
0
0
0
0
0
0
0
0
0
0
0
0
0
0
0
0
0
0
0
0
0
0
0
0
0
0
0
0
0
0
0
0
0
0
0
0
0
0
0
0
0
0
0
0
0
0
0
0
0
0
0
0
0
0
0
0
0
0
0
0
0
0
0
0
0
0
0
0
0
0
0
0
0
0
0
0
0
0
0
0
0
0
0
0
0
0
0
0
0
0
0
0
0
0
0
0
0
0
0
0
0
0
0
0
0
0
0
0
0
0
0
0
0
0
0
0
0
0
0
0
0
0
0
0
0
0
0
0
0
0
0
0
0
0
0
0
0
0
0
0
0
0
0
0
0
0
0
0
0
0
0
0
0
0
0
0
0
0
0
0
0
0
0
0
0
0
0
0
0
0
0
0
0
0
0
0
0
0
0
0
0
0
0
0
0
-7.0216005810386e-73
-3.5108002905193e-73
3.5220526665245e-57
3.169847399872e-56
7.129456434641e-55
4.6492795573307e-55
6.0225109129845e-54
4.0460969008375e-54
3.0865346114481e-53
2.0651980251621e-53
2.6448916310494e-52
1.5570114986737e-52
1.0889890957015e-51
7.630696940563e-52
4.5656882840711e-51
3.2183705181194e-51
1.8727969485831e-50
1.3316517330482e-50
7.262705440664e-50
5.0411106528566e-50
5.064392593818e-49
3.2811520761452e-49
2.1953374258222e-47
1.3120429942262e-47
1.152413324004e-45
3.719140242477e-46
3.3316393257471e-45
2.2604461396351e-45
8.207067939576e-45
5.4785525414767e-45
3.8665820155337e-44
1.6358489729492e-44
4.5131025334757e-44
3.9020985704053e-44
4.9971962552693e-44
4.1071203887313e-44
4.4552504138637e-44
4.6322234830954e-44
3.768248637188e-44
4.1058184651003e-44
3.1190900467478e-44
3.3455256462627e-44
2.4400322041812e-44
2.4910823345617e-44
1.7114815167509e-44
1.4980928591348e-44
8.3730120037022e-45
7.4763464017334e-45
2.0330798171413e-45
3.4146079691079e-45
3.0389062022663e-46
6.1184378148398e-46
5.2387416408163e-47
1.687922679455e-46
1.1509590245423e-47
2.6660573804184e-47
2.0753680084759e-48
7.8306621734349e-48
4.0662768234191e-49
1.0624424577601e-48
7.8887594223786e-50
2.2852181486689e-49
1.7446814687735e-50
4.8956792556896e-50
3.9842828756088e-51
1.3146148517293e-50
6.0323293649802e-52
3.1377689695955e-51
1.4780231599536e-52
3.6274541602389e-52
2.2656190212205e-53
1.1706271691921e-52
5.8210485890539e-54
1.4090856447216e-53
1.0695046530641e-54
4.448029219463e-54
1.6271852937378e-55
8.5391268377127e-55
4.0744005062314e-56
1.0180059809586e-55
6.1702565020082e-57
3.2443171999665e-56
1.5568130136743e-57
3.8595944741436e-57
2.4433442674498e-58
1.2312612156865e-57
4.4421426544922e-59
1.8573491314351e-58
1.1130733372704e-59
2.7830837367618e-59
1.6807507879753e-60
8.8751317500382e-60
4.3673640920454e-61
1.0480525222281e-60
7.9645893473286e-62
3.3533916324217e-61
1.2098734917922e-62
6.3725606985726e-62
3.0315456266219e-63
7.5840789545788e-63
4.5802314454274e-64
2.418158832531e-63
1.1901461710063e-64
2.8572897599279e-64
2.1717757543114e-65
9.140864983363e-65
3.3437783491274e-66
1.7345684312504e-65
7.2223609993479e-67
2.1338072170137e-66
1.3131058678336e-67
5.3749558661786e-67
3.3727936257544e-68
8.1547166672566e-68
6.1484528596438e-69
2.5905748027567e-68
9.3158385710994e-70
4.9248666874917e-69
2.4273053070443e-70
5.8149873787579e-70
4.490942909937e-71
1.8590428230031e-70
8.5767381099595e-72
3.4909881052985e-71
1.5742754555703e-72
6.6191480049643e-72
2.386072241377e-73
1.2607891811833e-72
4.6070357372788e-74
1.785723482996e-73
1.0389553434401e-74
2.9215193073121e-74
2.2644487122122e-75
6.3456488412064e-75
4.8091043764418e-76
1.3706643668697e-75
1.1339017479581e-76
2.8678304770799e-76
2.064565457776e-77
8.6713359901953e-77
3.1605224768302e-78
1.6515627288596e-77
7.0980431104291e-79
2.0118791257434e-78
1.6640106014505e-79
4.3046125852765e-79
2.5007218577298e-80
1.3240086171467e-79
4.8190687901559e-81
1.8715770272657e-80
1.0868184950727e-81
3.0647996281117e-81
2.3684103141548e-82
6.6464887079524e-82
5.0328807813966e-83
1.4329508035751e-82
1.1467224273624e-83
3.0121674704249e-83
1.7518346003814e-84
9.0899057651581e-84
3.8481895076051e-85
1.1158697766793e-84
9.5488680554849e-86
2.3104310648793e-85
7.0879494362102e-86
0
0
0
0
0
0
0
0
0
0
0
0
0
0
0
0
0
0
5.8813694725438e-40
5.7305349602587e-40
1.3721869417581e-40
4.2611670217308e-40
8.0073533367304e-41
5.7145160808508e-41
1.8037773117831e-38
1.1284745767966e-38
3.2477436219326e-39
1.4790029506428e-38
5.9179502536216e-40
2.6559485965705e-39
1.0760693241569e-40
4.8418809294647e-40
1.9565143745072e-41
8.8041788670619e-41
6.383524250959e-40
0
1.1606408812329e-40
5.2228833697261e-40
2.1102562215586e-41
9.496152590771e-41
3.8368294936573e-42
1.7265732721939e-41
6.9760536264263e-43
3.1392241310706e-42
5.154429490133e-42
0
9.3716899910405e-43
4.2172604935494e-42
1.7039436615973e-43
7.6677464136553e-43
3.0980804962546e-44
1.394135959199e-43
5.6329165411032e-45
2.5348022184912e-44
1.0244384172585e-45
4.6093797522079e-45
1.9689344259538e-46
8.6451116073491e-46
2.0049975750923e-46
4.8128437048154e-46
1.6909593666738e-43
0
3.725341182352e-44
1.4851611962952e-43
2.5563171162557e-44
5.1999117772329e-44
4.4212826713132e-43
0
1.2991854596021e-43
4.0107626436377e-43
1.0015226863845e-42
0
1.0872737868265e-42
0
9.0788457334037e-44
1.058365579621e-42
1.3568671097536e-43
0
1.8889280946785e-44
1.2384703747862e-43
1.5484750463444e-44
4.6659478439235e-45
1.2593787168124e-45
2.1953787760167e-44
1.8110955158647e-45
0
8.2038060440016e-47
1.8809413639163e-45
3.9543952141721e-47
0
1.6037639170968e-47
2.3029839873584e-47
4.0925236142685e-48
1.2559426445477e-47
1.7230664085204e-48
2.3906779987691e-48
2.5760661049453e-49
0
3.3308523424423e-49
0
4.3734203420142e-50
2.908656089513e-49
3.6823971252086e-51
0
3.5383879549733e-51
2.0041276062852e-52
6.2391841040619e-52
0
6.2609916415908e-52
0
8.7767064350161e-53
5.3876227823231e-52
5.4531257824823e-53
0
7.49760161984e-54
4.705008790554e-53
4.7872147726573e-54
0
1.1373909976483e-55
4.6741053776966e-54
1.1381721664905e-55
0
6.9802850195736e-56
0
9.6467506611673e-57
6.0160700561541e-56
5.8678891735733e-57
0
1.0670318775391e-57
4.8010322530245e-57
1.4688939227082e-58
9.2017611979903e-58
8.8706061270015e-59
0
1.2021067812207e-59
7.6686266236271e-59
7.4768434687665e-60
0
2.3287860843989e-61
7.2440131826021e-60
2.3281086838401e-61
0
3.097156011099e-62
0
3.0958724984854e-62
0
1.9403291880285e-62
0
3.3203590672025e-63
1.6082946648867e-62
6.0370375006384e-64
2.7166579762583e-63
1.051973077977e-64
0
1.0516450181753e-64
0
3.4786274351886e-66
1.0168589347735e-64
3.4775430275705e-66
0
1.4152155484016e-67
3.3360221566319e-66
1.3083152264272e-67
0
3.7889035454294e-68
0
1.4986518034542e-68
0
1.432786058372e-68
0
2.1859122939074e-69
0
2.1851891952763e-69
0
4.1421052298509e-71
2.1437681520353e-69
2.9378950578858e-71
0
2.1664520218956e-71
0
8.7692515765953e-73
2.0787595132842e-71
8.0614958389442e-73
0
1.861932088361e-73
0
7.0413846455716e-74
0
5.5484379845345e-74
0
8.2442929612286e-75
0
8.2413039546447e-75
0
9.2723795465245e-76
0
6.6979070802521e-76
0
0
0
0
0
0
0
0
0
0
0
0
0
0
0
0
3.6457027448512e-29
1.8272366417396e-29
1.8574606962565e-27
9.4580662749012e-28
4.5376545225048e-26
2.3555073155273e-26
7.0039815665131e-25
3.7191075361114e-25
7.5964037523043e-24
4.1494526034358e-24
5.9278408156929e-23
3.337012565643e-23
3.774490291158e-22
2.1443320263591e-22
2.6295519303962e-21
1.4700349780407e-21
2.0763972552655e-20
1.1484753167742e-20
1.4413863252723e-19
8.1295250836733e-20
8.0011494947396e-19
4.6945747034949e-19
3.4846134968409e-18
2.1447414945402e-18
1.1668762099476e-17
7.620816374022e-18
3.0344411425029e-17
2.112009552525e-17
6.3610959657174e-17
4.691221288201e-17
1.1382884427132e-16
8.7716714394116e-17
1.8449553065e-16
1.4641880034505e-16
2.8001805893172e-16
2.2798500086479e-16
3.8978599887794e-16
3.3181115934287e-16
4.6026441234061e-16
4.261334796302e-16
4.6900952343648e-16
4.5950511532797e-16
4.6147723473302e-16
4.5544790995529e-16
4.2057337294229e-16
4.3023644423341e-16
3.3476189538355e-16
3.6685780320715e-16
2.1968650402768e-16
2.6760515274057e-16
1.1102894442688e-16
1.5734614524918e-16
4.1321002586373e-17
7.0798779157e-17
1.1818723214571e-17
2.4243360857612e-17
3.0389233070085e-18
6.8772342840984e-18
8.1722392596733e-19
1.856939901765e-18
2.4105230677738e-19
5.2469662060624e-19
7.6670524565674e-20
1.590780923468e-19
2.5500405936065e-20
5.1123938747655e-20
8.6448902891886e-21
1.7024636406573e-20
2.9346211464753e-21
5.7536147431217e-21
9.853769535395e-22
1.9428578286527e-21
3.2402902948489e-22
6.4777741423799e-22
1.0341536116526e-22
2.1109058523234e-22
3.1833767355859e-23
6.6673097598692e-23
9.4443320481237e-24
2.0323761822436e-23
2.7142280309338e-24
5.9864918724935e-24
7.6162942851144e-25
1.7135637181773e-24
2.1010270787579e-25
4.7991649607282e-25
5.7201051844397e-26
1.3221912885953e-25
1.5392375317764e-26
3.594194627412e-26
4.0958947551817e-27
9.6535919398883e-27
1.0783065219918e-27
2.5637833053156e-27
2.8106095689985e-28
6.7372945146451e-28
7.2590669648587e-29
1.7532513881031e-28
1.8591247225926e-29
4.5216585535687e-29
4.7244661960669e-30
1.1565066288751e-29
1.1918918039873e-30
2.9352896364057e-30
2.9864519028426e-31
7.396483937456e-31
7.435063929725e-32
1.8512479585846e-31
1.8398592049219e-32
4.6040804508968e-32
4.5268977726752e-33
1.1381983237379e-32
1.1078093327148e-33
2.797902916139e-33
2.697104277849e-34
6.8409561669819e-34
6.5344450364958e-35
1.6641357869026e-34
1.5757917244463e-35
4.0286245082249e-35
3.7832146645745e-36
9.7077900878135e-36
9.0444268536743e-37
2.329009093096e-36
2.1534683770956e-37
5.5640869751391e-37
5.1074851629166e-38
1.3239360840807e-37
1.2068562702604e-38
3.1380754338694e-38
2.8415011255963e-39
7.4105563901638e-39
6.6672045463074e-40
1.7437836483385e-39
1.5591912775398e-40
4.0892896335535e-40
3.6346886154391e-41
9.5581097052431e-41
8.4468847664795e-42
2.2269833851049e-41
1.9571941541848e-42
5.1728703916853e-42
4.521921266179e-43
1.1980138284883e-42
1.0418498522273e-43
2.7666295054514e-43
2.3939736364736e-44
6.3714755101298e-44
5.4865915285597e-45
1.4634151226469e-44
1.2542668311092e-45
3.3525106484941e-45
2.8603192022626e-46
7.6609493000477e-46
6.5074054094125e-47
1.7463758623175e-46
1.477066389435e-47
3.9716121370117e-47
3.3451800897952e-48
9.0115531898217e-48
7.5595078637987e-49
2.0401612316096e-48
1.7047002024313e-49
4.6088048975275e-49
3.8362573204636e-50
1.0389553372655e-49
8.6158142950463e-51
2.3373013926269e-50
1.9312407918495e-51
5.2476554653045e-51
4.320656103418e-52
1.1759019299339e-51
9.6484258839601e-53
2.6299874870479e-52
2.1507079924866e-53
5.8712736312135e-53
4.7850637242069e-54
1.3084042810107e-53
1.0642237328015e-54
2.9095511378358e-54
2.3263933225424e-55
6.4864571845427e-55
5.9534032977744e-56
1.3733978100629e-55
4.4988646545649e-56
0
0
0
0
0
0
0
0
0
0
0
0
3.3757621395453e-29
1.6804406512166e-29
2.4887415663076e-27
1.2382481134842e-27
8.3304531026105e-26
4.1729281914129e-26
1.7432636745419e-24
8.8345466508719e-25
2.5688226028903e-23
1.3230751685649e-23
2.8311565686633e-22
1.4908420913508e-22
2.3481122209388e-21
1.2743169721441e-21
1.4920579099075e-20
8.3630575707357e-21
7.8686569508685e-20
4.4781944576951e-20
4.0945459734864e-19
2.2661988738487e-19
2.8244302492879e-18
1.4941353164e-18
2.0521279205099e-17
1.0865915086264e-17
1.0599162046484e-16
6.0783540069588e-17
4.4304959119823e-16
2.7371014464174e-16
1.248558416711e-15
8.6636873723856e-16
2.2122146339874e-15
1.749281426934e-15
3.1161041686359e-15
2.6002043913376e-15
4.2428070757464e-15
3.5236219002258e-15
6.0819449485581e-15
4.922480682815e-15
8.7340286866202e-15
7.0968536283279e-15
1.0926590713827e-14
9.5275817422964e-15
1.136699061002e-14
1.0706960540812e-14
1.1293019036145e-14
1.071837994067e-14
1.0380802470139e-14
1.0196322088963e-14
8.3716754484675e-15
8.7793891650797e-15
5.5390642387382e-15
6.4445977344299e-15
2.8283621769311e-15
3.8109338030347e-15
1.0796247805229e-15
1.7386575591765e-15
3.2770549148627e-16
6.1869265524493e-16
9.2519975609294e-17
1.8887263810595e-16
2.7650990779946e-17
5.6239721453029e-17
9.0305740747112e-18
1.7650075445014e-17
3.1504693510966e-18
5.9216379292693e-18
1.1367428207009e-18
2.0863210927619e-18
4.1377130318909e-19
7.5318306416538e-19
1.4966998785264e-19
2.7325104411616e-19
5.3337975783272e-20
9.8400067832055e-20
1.8590104920178e-20
3.4871446014731e-20
6.2820484218689e-21
1.205891091996e-20
2.0411984739706e-21
4.0332388299757e-21
6.3521681912932e-22
1.2960341047122e-21
1.898610210308e-22
3.9956798220408e-22
5.4944991680801e-23
1.1871564876121e-22
1.5536603400481e-23
3.4257617486159e-23
4.3211843191555e-24
9.6747939352349e-24
1.1860703673887e-24
2.6880043498169e-24
3.2165186612223e-25
7.3672546338267e-25
8.6226464917727e-26
1.9943996618514e-25
2.2862953789209e-26
5.3368745139852e-26
6.0008538583093e-27
1.4127644791626e-26
1.5604591781176e-27
3.702761044606e-27
4.0232442211758e-28
9.6162170986638e-28
1.0290916730349e-28
2.4763411591735e-28
2.6128316936753e-29
6.3270730099948e-29
6.5879020809455e-30
1.6047381813581e-29
1.6502152600038e-30
4.0421444846963e-30
4.1082307928928e-31
1.0115873022858e-30
1.0168049562052e-31
2.5161665519021e-31
2.5027827581084e-32
6.2225061087178e-32
6.1282069673778e-33
1.5304293841398e-32
1.4930698954262e-33
3.7445850046416e-33
3.6204774798397e-34
9.116890801861e-34
8.739468694548e-35
2.2092442491019e-34
2.1005109499951e-35
5.3295181443464e-35
5.0276661492674e-36
1.2801640171505e-35
1.1986282754139e-36
3.0623627632338e-36
2.8467481443487e-37
7.2968464029687e-37
6.7363578256922e-38
1.7320897842092e-37
1.5884505350244e-38
4.0966293081023e-38
3.7329457995935e-39
9.6552662227221e-39
8.7440489652867e-40
2.2679818983275e-39
2.0417690886792e-40
5.310135546488e-40
4.7531453890029e-41
1.2394016963435e-40
1.1032668608316e-41
2.8840704809145e-41
2.5535662022248e-42
6.6916177791078e-42
5.8941409110331e-43
1.5482089062142e-42
1.3568704840505e-43
3.5722398054984e-43
3.1155623008113e-44
8.2205634976103e-44
7.1358957784066e-45
1.8868956974575e-44
1.6304471458717e-45
4.320292025278e-45
3.7165646921256e-46
9.8679995296424e-46
8.4524482743661e-47
2.2486729129432e-46
1.9180368042259e-47
5.1125020989893e-47
4.343015663364e-48
1.1597871338939e-47
9.8132114292065e-49
2.6253482252605e-48
2.212790748351e-49
5.9304065697194e-49
4.9796874221516e-50
1.3368876162769e-49
1.1184537750643e-50
3.0077466098395e-50
2.5073454868985e-51
6.753737229455e-51
5.6099013871193e-52
1.5136996027117e-51
1.2545777705449e-52
3.3851179380731e-52
2.757436774735e-53
7.5886351902951e-53
7.097800440461e-54
1.615502474747e-53
5.3275271442896e-54
0
0
0
0
0
0
0
0
0
0
1.4691368467415e-29
7.243002928459e-30
1.5112807797695e-27
7.3962943738436e-28
6.4517705630016e-26
3.1565072589942e-26
1.6476268944287e-24
8.0928308364639e-25
2.937897386755e-23
1.4529475580776e-23
3.9644284645463e-22
1.9802380372677e-22
4.2174461220966e-21
2.1370967333646e-21
3.5899632177679e-20
1.8585281678501e-20
2.4388083698563e-19
1.3030430871965e-19
1.2976631860139e-18
7.2088634551748e-19
5.6395824675939e-18
3.1847623146081e-18
2.5281487972031e-17
1.3729779838406e-17
1.4180873041716e-16
6.9659420468117e-17
1.6603187508293e-15
7.3716713178223e-16
1.2830111508423e-14
5.9533832540104e-15
4.20681277911e-14
2.7242207111846e-14
6.719762170105e-14
6.574997887756e-14
6.5603354124702e-14
7.7573754375139e-14
6.3699282953781e-14
7.995089995304e-14
7.3399900759387e-14
8.3799706966163e-14
9.7568001169198e-14
9.9506172220016e-14
1.2375799996302e-13
1.21959088119e-13
1.3349277624078e-13
1.3594592890762e-13
1.3380148569478e-13
1.3528687525292e-13
1.2398930816164e-13
1.2682562821128e-13
9.768995121527e-14
1.0532887488294e-13
6.1651743978172e-14
7.2545185023382e-14
3.01277039365e-14
4.0001078819691e-14
1.1430887633923e-14
1.7478461411463e-14
3.7107098145019e-15
6.3425437340849e-15
1.1905282169061e-15
2.12297309562e-15
4.095452744825e-16
7.2188397125886e-16
1.5150382006687e-16
2.5963480497787e-16
5.8563904732032e-17
9.8290105827425e-17
2.2974468703217e-17
3.8292857341939e-17
8.9743646080741e-18
1.5024300520778e-17
3.4606619706157e-18
5.8570600706165e-18
1.3129345112793e-18
2.2543092564421e-18
4.8787620390852e-19
8.5302069540715e-19
1.7602428182734e-19
3.1524757921603e-19
6.0979156180253e-20
1.1267333107127e-19
2.0110405033387e-20
3.8558668437212e-20
6.3061803195966e-21
1.2564521163915e-20
1.8934893525699e-21
3.9054338668551e-21
5.5062987878461e-22
1.1673244981604e-21
1.5669033269114e-22
3.3895091615216e-22
4.3904588580724e-23
9.6406716127889e-23
1.2143433045381e-23
2.6991214722306e-23
3.3176760596812e-24
7.4549444037549e-24
8.9571741345255e-25
2.0333147070224e-24
2.3914378611425e-25
5.4806584353736e-25
6.3195893202526e-26
1.461156455105e-25
1.6543965605909e-26
3.8563950570015e-26
4.2937043318656e-27
1.0084186956222e-26
1.1054274220985e-27
2.6144328141177e-27
2.8246133675985e-28
6.7243165378025e-28
7.1666900705873e-29
1.7166281859787e-28
1.8063016635871e-29
4.3517175697187e-29
4.5241637149357e-30
1.0959248064884e-29
1.1264491538534e-30
2.7428269759458e-30
2.7889792345427e-31
6.8243363054561e-31
6.8685109030443e-32
1.6884965020051e-31
1.6829699114315e-32
4.1556538585472e-32
4.1038383592609e-33
1.0176291508245e-32
9.9609292750368e-34
2.4800086814145e-33
2.4070966566758e-34
6.0162362521017e-34
5.7923279376639e-35
1.4530882500581e-34
1.3882086839113e-35
3.4949064900703e-35
3.3141274151364e-36
8.3720323045846e-36
7.8824743730997e-37
1.9977821983453e-36
1.8680850859998e-37
4.7495532686805e-37
4.4119374913368e-38
1.1251385433197e-37
1.0385202989695e-38
2.6562273074088e-38
2.4367144729537e-39
6.2500620594299e-39
5.6996265011438e-40
1.4659323365059e-39
1.3291855061277e-40
3.4276914259679e-40
3.0907584240058e-41
7.9908447648092e-41
7.1667999325492e-42
1.8575022145537e-41
1.6573132082525e-42
4.3057800543997e-42
3.8224281981266e-43
9.954014128074e-43
8.793545355621e-44
2.2951160787368e-43
2.0179545525664e-44
5.2784364942584e-44
4.619687835324e-45
1.2109681999607e-44
1.0551092700844e-45
2.7715194771883e-45
2.404330128052e-46
6.3283483739849e-46
5.4667548658963e-47
1.4417108968982e-46
1.2403084811806e-47
3.2772393685749e-47
2.8081422498807e-48
7.4337154182041e-48
6.3448436407275e-49
1.6826588559621e-48
1.4307458141992e-49
3.8010251694407e-49
3.219661225283e-50
8.5695350338571e-50
7.2413567547402e-51
1.9275866140796e-50
1.6004781451219e-51
4.3459482009592e-51
4.1446308564378e-52
9.303286863263e-52
3.0894914250556e-52
0
0
0
0
0
0
0
0
0
0
3.9166153415363e-28
1.8621458474378e-28
2.7771611368458e-26
1.3210378201354e-26
9.374554891708e-25
4.4735677125533e-25
2.0242194523018e-23
9.7095536985346e-24
3.167032429323e-22
1.5287652612572e-22
3.8550513131237e-21
1.874107790007e-21
3.8177011749171e-20
1.8721734897451e-20
3.145440073424e-19
1.5617869409795e-19
2.1686108001952e-18
1.0988068190958e-18
1.2262673250831e-17
6.4257693068687e-18
5.4979896340359e-17
3.0137856650554e-17
2.0232822867794e-16
1.1332536691265e-16
7.4673012974408e-16
3.9250094059069e-16
4.3638359482278e-15
1.8902589110276e-15
3.2177045659674e-14
1.1217399356253e-14
7.0692726471731e-13
1.8323410104839e-13
5.2477745052681e-12
2.1654274383086e-12
5.3826515222137e-12
6.1121980096621e-12
4.0577500743211e-12
6.3813712303704e-12
2.8193270615822e-12
4.9078309743504e-12
2.1449029224328e-12
3.5404779283434e-12
1.8957225469955e-12
2.8792028290839e-12
1.7658692315992e-12
2.5677045485523e-12
1.6007673779365e-12
2.2882505020334e-12
1.3051336998998e-12
1.8938429158104e-12
8.7523249424069e-13
1.3353918802069e-12
4.5160613310778e-13
7.3262298615382e-13
1.8158552405143e-13
3.0156649865783e-13
6.3485257763213e-14
1.031553979122e-13
2.2196617832516e-14
3.487222640785e-14
8.3814473183251e-15
1.2749052843398e-14
3.4170485048067e-15
5.069137352915e-15
1.4578826297113e-15
2.1388379150794e-15
6.3110856608808e-16
9.2840811820175e-16
2.7140683229487e-16
4.0448212243213e-16
1.1481102746729e-16
1.7427952847603e-16
4.7679626835828e-17
7.3822959875226e-17
1.9443862746433e-17
3.0707515578712e-17
7.766555866214e-18
1.2529972763981e-17
3.0145775724325e-18
4.9918292825417e-18
1.1230909378869e-18
1.923206488362e-18
3.9670514007969e-19
7.0796232197882e-19
1.3203654744557e-19
2.4662520764939e-19
4.1558338105234e-20
8.1112324152153e-20
1.2516263786112e-20
2.534490523948e-20
3.6574651842902e-21
7.6125778392163e-21
1.047782815566e-21
2.2238941100858e-21
2.9579447905773e-22
6.3707168308951e-22
8.2423442184605e-23
1.7971280916618e-22
2.2679654403362e-23
5.0008252444342e-23
6.1654224893379e-24
1.3738814326246e-23
1.657249313598e-24
3.7294880431979e-24
4.4088230791934e-25
1.0012307775428e-24
1.1618326311646e-25
2.6607107012634e-25
3.0350329124932e-26
7.0047250152071e-26
7.8639762094295e-27
1.8281568477767e-26
2.02211120574e-27
4.7328228838737e-27
5.1624203458705e-28
1.2160051218751e-27
1.3090900537939e-28
3.1021230379962e-28
3.2985170324415e-29
7.8608855442015e-29
8.2613445362893e-30
1.9794104780457e-29
2.0573190823167e-30
4.9545026662987e-30
5.0956049380526e-31
1.2331009405882e-30
1.2555873140584e-31
3.0524915860045e-31
3.0786471991726e-32
7.5176192791105e-32
7.5133116809106e-33
1.8423829041379e-32
1.8253693806989e-33
4.4941636147815e-33
4.4157135678262e-34
1.0913796038856e-33
1.0637972729648e-34
2.6390213541584e-34
2.5526807307222e-35
6.3551598725336e-35
6.1021210325339e-36
1.5243958257994e-35
1.4533644799138e-36
3.6426982830309e-36
3.449343574293e-37
8.6729140630715e-37
8.1587146665956e-38
2.0576978277959e-37
1.9234562572792e-38
4.8655018148711e-38
4.5202978217139e-39
1.1467128552255e-38
1.0590636599551e-39
2.6940848022051e-39
2.4739500500345e-40
6.3102007286234e-40
5.762551730598e-41
1.4736477475236e-40
1.338544528995e-41
3.431655832088e-41
3.1008580987485e-42
7.969151255921e-42
7.1646862629938e-43
1.8456761186484e-42
1.6512471057351e-43
4.2635259523193e-43
3.7962808675374e-44
9.8239357658339e-44
8.706953673203e-45
2.2580673168492e-44
1.9923452802074e-45
5.1778934019023e-45
4.5486337570636e-46
1.1845758047424e-45
1.0361953692118e-46
2.7039179246228e-46
2.3554362754483e-47
6.1584482553781e-47
5.3431683730625e-48
1.3996516773129e-47
1.2094620074272e-48
3.1745210651337e-48
2.7359460405176e-49
7.1828454124866e-49
6.0812515982473e-50
1.6288735021056e-49
1.5845074607582e-50
3.5064874274787e-50
1.1728158782945e-50
0
0
0
0
0
0
0
0
4.7065691780971e-42
1.4713992903351e-42
4.9134684661352e-27
2.242461682894e-27
2.9866233546792e-25
1.371053828607e-25
8.9001069928451e-24
4.1138957786095e-24
1.7293563758804e-22
8.0557203968985e-23
2.4627874149067e-21
1.1566879852076e-21
2.7453427061695e-20
1.2996734304351e-20
2.5076419512456e-19
1.1958298449022e-19
1.9337577352723e-18
9.2882032362208e-19
1.2848623244366e-17
6.2353333260915e-18
7.300883370721e-17
3.6118511003737e-17
3.4724202678404e-16
1.7803911472448e-16
1.316427163375e-15
7.1175117639405e-16
4.0533356241855e-15
2.2644359088413e-15
1.2032717575761e-14
6.1594069191101e-15
4.6837800784188e-14
1.801729999459e-14
6.164155182779e-13
1.1733339918468e-13
8.224670157946e-12
1.3564478387919e-12
1.8140531114132e-10
4.7458489047942e-11
2.1342018257857e-10
1.9051164550624e-10
1.3512392827315e-10
2.3510987994642e-10
7.88278546866e-11
1.5435258077394e-10
4.8734755208012e-11
9.3891416295925e-11
3.4459835182706e-11
6.2112551503992e-11
2.6170215402e-11
4.5590439040995e-11
1.8829266955261e-11
3.3615876155813e-11
1.1123710401457e-11
2.1919141151797e-11
4.6083750537136e-12
1.0950425727667e-11
1.2213572737797e-12
3.6250418511286e-12
2.7576291058058e-13
7.9248735584964e-13
8.6000133800754e-14
1.6862315098334e-13
3.6271975348753e-14
5.2138735329752e-14
1.7416488780935e-14
2.233911327078e-14
8.6236207327375e-15
1.0776693768154e-14
4.2238142765397e-15
5.3500733087548e-15
2.0201722168216e-15
2.6326775972992e-15
9.4153941656637e-16
1.2667035499375e-15
4.2828058060284e-16
5.9405141716097e-16
1.9048102681513e-16
2.7176627289474e-16
8.2782282227218e-17
1.213927514022e-16
3.4949163699684e-17
5.2818124605902e-17
1.4164867306706e-17
2.2208607647067e-17
5.4310733440437e-18
8.9108505685934e-18
1.9476572091989e-18
3.3676710854809e-18
6.5197913437377e-19
1.1899232981759e-18
2.0563244440276e-19
3.9395737691002e-19
6.2102649125062e-20
1.2358859231833e-19
1.823851858945e-20
3.7287782278112e-20
5.2596549440907e-21
1.0957439728595e-20
1.4954434007681e-21
3.1605198389613e-21
4.1962473296324e-22
8.979324618963e-22
1.1624105391943e-22
2.5162676012007e-22
3.1806944342975e-23
6.9604507235993e-23
8.6048774836514e-24
1.9021782248601e-23
2.3038276931288e-24
5.1405419489837e-24
6.109550703169e-25
1.3750181843766e-24
1.6059382280627e-25
3.6433287995835e-25
4.1866409888964e-26
9.5691707245161e-26
1.0830410277113e-26
2.4928172736553e-26
2.7814333241474e-27
6.4442287172939e-27
7.0944727986076e-28
1.6539284453729e-27
1.7978988355008e-28
4.2160816416416e-28
4.5285012193615e-29
1.0678538290205e-28
1.1340305894709e-29
2.6882762793539e-29
2.8242376335907e-30
6.728694578802e-30
6.996787872274e-31
1.6749679475945e-30
1.7247369828223e-31
4.1477704462832e-31
4.2312755943138e-32
1.0220218843513e-31
1.0333188068247e-32
2.5063381851135e-32
2.5124402782417e-33
6.1184680280912e-33
6.0832197958968e-34
1.4871418519774e-33
1.4669668103581e-34
3.599532643114e-34
3.523903203797e-35
8.6775270067456e-35
8.4335047019053e-36
2.0838639055219e-35
2.0110933308414e-36
4.9857366298268e-36
4.7791683681917e-37
1.1885982284632e-36
1.1319338588696e-37
2.8238535440078e-37
2.6723170985101e-38
6.6865624326557e-38
6.2892659173102e-39
1.5782164777768e-38
1.4757105531265e-39
3.7134680868809e-39
3.4524986490719e-40
8.7113655169918e-40
8.0544633295634e-41
2.0376416101114e-40
1.8739071295697e-41
4.7527373058434e-41
4.3481407450683e-42
1.1055328812439e-41
1.0063224147282e-42
2.5647608698017e-42
2.3231702010648e-43
5.9347608709763e-43
5.3501506923627e-44
1.3698494524272e-43
1.2291968682609e-44
3.1541790798121e-44
2.8175741773825e-45
7.245576307204e-45
6.4439788640523e-46
1.660582966467e-45
1.4705776046815e-46
3.7972978144203e-46
3.3484719432874e-47
8.664735503459e-47
7.6188035117516e-48
1.9722190558685e-47
1.7031176923277e-48
4.4986930772641e-48
4.4651683027416e-49
9.7390361676169e-49
3.2811325190888e-49
0
0
0
0
0
0
0
0
1.337346677574e-42
1.3405261275815e-43
3.8348538218547e-26
1.6750540099256e-26
2.1573979300074e-24
9.5146938317438e-25
5.9943571937901e-23
2.6693738479817e-23
1.0914645404081e-21
4.9091441884699e-22
1.459740151382e-20
6.6336079556537e-21
1.5254175449688e-19
7.0042580117703e-20
1.2997843875347e-18
6.0252682817872e-19
9.3227844924991e-18
4.3545261349044e-18
5.7923626396697e-17
2.7205087432743e-17
3.1606517162788e-16
1.4970424635353e-16
1.4975717017836e-15
7.2184867901533e-16
6.0462331127963e-15
3.0263334545783e-15
1.9466570866774e-14
1.0507899658012e-14
4.5625466251851e-14
2.6623439579055e-14
9.358274099831e-14
4.9162782938717e-14
3.5141666130112e-13
9.6227963757057e-14
5.4967019674187e-12
7.5109470436234e-13
1.2480839061343e-10
1.160904906958e-11
1.5332618089192e-09
2.8090626910197e-10
3.9815467159568e-09
2.1805165118623e-09
2.7165855542277e-09
4.3533816499749e-09
1.4677282982947e-09
2.9550382780822e-09
8.1783078118048e-10
1.6853810304296e-09
4.9219699883425e-10
9.8754260602529e-10
3.0293680954181e-10
6.0679620768378e-10
1.6858947792917e-10
3.6052880466875e-10
7.0531020348366e-11
1.7896053584617e-10
1.7892013692527e-11
6.179837070241e-11
2.7512021274712e-12
1.2954398991848e-11
4.8900106058178e-13
2.0400035002901e-12
1.4092027517276e-13
3.7836762927669e-13
6.2575013890414e-14
9.7327268420294e-14
3.3174437441187e-14
3.9596313409796e-14
1.8061679413509e-14
2.0406803380244e-14
9.7259264828694e-15
1.1040639558066e-14
5.1017234433951e-15
5.9637568819957e-15
2.5960496728162e-15
3.1508769826134e-15
1.2829900819096e-15
1.6173585743034e-15
6.1666689321007e-16
8.0612385488495e-16
2.8737295474071e-16
3.8978191403254e-16
1.2853456058786e-16
1.8176351532859e-16
5.4323179891663e-17
8.0767089854569e-17
2.1353474077218e-17
3.3681389918742e-17
7.7382661288122e-18
1.301690630667e-17
2.594926498077e-18
4.6446949859912e-18
8.1800874482945e-19
1.5423812324433e-18
2.4740959464433e-19
4.846243316676e-19
7.2979391002798e-20
1.4667452924791e-19
2.1175965983253e-20
4.3323245873985e-20
6.0607388516707e-21
1.257450300186e-20
1.7115770869765e-21
3.5960008773965e-21
4.7703902131656e-22
1.0142024244342e-21
1.3131467888379e-22
2.8230823669459e-22
3.5736754979626e-23
7.7626950252018e-23
9.6247651568462e-24
2.110684303557e-23
2.5674408711808e-24
5.6800980600604e-24
6.7880154369032e-25
1.5140922703549e-24
1.7797955350396e-25
4.0003944821811e-25
4.6302741112184e-26
1.0482359160678e-25
1.195790715467e-26
2.7254906366204e-26
3.0668949880185e-27
7.0349472554293e-27
7.8145483619867e-28
1.8033870404773e-27
1.9788859050355e-28
4.5929659126508e-28
4.9818059035564e-29
1.1625800168754e-28
1.2471757365826e-29
2.9255928354845e-29
3.1056941341962e-30
7.3213448199678e-30
7.6946023282541e-31
1.8225028070454e-30
1.8971791527377e-31
4.5138939614372e-31
4.6560338940964e-32
1.1125966198653e-31
1.137611595937e-32
2.7297170591361e-32
2.7677100232585e-33
6.6676822747618e-33
6.7060870393759e-34
1.6217637433062e-33
1.6184837339958e-34
3.928516053497e-34
3.8913672422235e-35
9.4790718379836e-35
9.322041338659e-36
2.2785743288062e-35
2.2253141260723e-36
5.4573338039011e-36