/*--------------------------------*- C++ -*----------------------------------*\
  =========                 |
  \\      /  F ield         | OpenFOAM: The Open Source CFD Toolbox
   \\    /   O peration     | Website:  https://openfoam.org
    \\  /    A nd           | Version:  7
     \\/     M anipulation  |
\*---------------------------------------------------------------------------*/
FoamFile
{
    version     2.0;
    format      ascii;
    class       volScalarField;
    location    "3.6";
    object      alpha.water;
}
// * * * * * * * * * * * * * * * * * * * * * * * * * * * * * * * * * * * * * //

dimensions      [0 0 0 0 0 0 0];

internalField   nonuniform List<scalar> 
6000
(
0
0
0
0
0
0
0
0
0
0
0
0
0
0
0
0
0
0
0
0
0
0
0
0
0
0
0
0
0
0
0
0
0
0
0
0
0
0
0
0
0
0
0
0
0
0
0
0
0
0
0
0
0
0
0
0
0
0
0
0
0
0
0
0
0
0
0
0
0
0
0
0
0
0
0
0
0
0
0
0
0
0
0
0
0
0
0
0
0
0
0
0
0
0
0
0
0
0
0
0
0
0
0
0
0
0
0
0
0
0
0
0
0
0
0
0
0
0
0
2.4384804412101e-214
2.2105254854176e-213
1.0568002196187e-212
3.5256404905701e-212
1.49250395693e-220
2.1839021691291e-193
6.3081158870489e-193
1.0403941083318e-203
2.8024218909744e-205
1.8343057633092e-204
2.3410029330833e-192
1.4870183895801e-191
9.7144642641186e-203
3.1068727028999e-192
1.0600037006067e-191
4.4946633386852e-191
1.5046362421684e-190
2.764551027674e-202
4.0212025080518e-203
1.5314570179943e-191
4.3621770277861e-191
1.4315383748514e-204
2.5371087803874e-191
1.8688490533308e-207
4.2708190966669e-192
4.0491729488835e-207
1.0795892435222e-192
3.1105708857611e-192
1.9467177638862e-208
1.1787139437688e-192
3.8934355277724e-209
3.9075347088118e-193
6.4919511187985e-193
3.8934355277724e-209
1.8464384667198e-193
4.380114968744e-209
3.285086226558e-209
9.2299787986578e-195
3.0088412724622e-197
2.5061344957183e-195
2.423511528713e-208
6.0036627629886e-196
1.1307122309111e-207
8.2081107771568e-197
3.6195119973722e-208
1.1931643005883e-197
8.5391164047445e-198
6.0247515807249e-207
1.0615182667591e-198
1.3804463493591e-198
9.1334709971405e-199
1.2304083578373e-198
1.1852594124518e-204
2.5864003687311e-199
5.8773663694099e-206
2.9989005165162e-200
1.2999808761808e-205
6.7739184338339e-201
7.2283141717864e-201
5.6319463282495e-203
1.4056197779333e-201
9.0265535201579e-204
2.649947433629e-202
1.5529105689847e-202
1.6689740033042e-202
1.5853612318397e-202
3.9432193168308e-203
6.8289716677535e-203
4.2655439212758e-203
5.1109324708313e-203
3.0592157847889e-203
2.0664287591534e-203
2.2299347567692e-203
1.2626699051928e-203
1.2508698917707e-203
6.7316480315581e-204
6.1915373078303e-204
4.8634506790908e-204
2.4443467695579e-204
2.0477963034375e-204
2.1210936283627e-204
0
0
0
0
0
0
0
0
0
0
0
0
0
0
0
0
0
0
0
3.3454815455276e-159
1.8397111465677e-155
6.4169165772701e-164
6.5259078267481e-145
6.2808856648527e-129
5.7829278347144e-128
5.1253327236686e-145
2.1357901930947e-126
6.0935058222593e-128
-8.9927446607969e-132
1.3244642563673e-127
2.3069190834467e-127
1.0744570061511e-126
1.4501197159613e-128
0
1.0931409166579e-127
5.1943628221632e-127
1.3817745345195e-125
0
1.8648720877325e-127
6.0132895642151e-124
-1.6794690268917e-140
9.4453301971748e-123
3.8266365774058e-122
2.1801966402176e-124
2.1533003394799e-124
2.851225789692e-124
1.507555633936e-122
2.7033473068213e-122
5.5079773725374e-122
4.6836056839185e-122
2.2560274748252e-122
4.938686243113e-122
1.8878622458287e-122
1.4416687303931e-122
1.4980599478549e-122
7.6774049660777e-124
3.1931470867627e-123
6.8952130901595e-124
1.1999331983206e-127
-6.2437422477896e-256
-1.0406237079649e-256
1.5804603306868e-125
0
7.5466752556399e-128
0
0
1.9603725721362e-128
3.1282548362236e-146
3.3694249758524e-133
8.0738302163656e-147
1.0637941501244e-132
0
6.7515603666254e-131
4.7958533692349e-135
9.7335888194311e-207
0
2.2465321068804e-133
1.9574271250915e-137
5.0024582952305e-151
1.9066035588697e-136
0
1.5971449746288e-136
0
2.6406936141339e-141
3.5746659395176e-138
3.0733643947538e-138
1.8208220083048e-138
0
2.8579555799505e-143
3.3148837139413e-140
0
3.050978670403e-141
0
5.0067671930482e-143
5.7613736478199e-143
3.8915422557044e-143
1.7755519577695e-143
0
8.7012329214109e-146
8.8678450119654e-145
0
0
0
0
0
0
0
0
0
0
0
0
0
0
0
0
0
-3.4703910836133e-97
-9.7882509975938e-96
-1.5675708432753e-94
-1.7845713898677e-93
-1.5471794099344e-92
-1.0739480042921e-91
2.4926436881665e-81
1.287587441151e-80
2.6860949834719e-79
1.7823488371884e-79
-3.0322265625559e-84
-1.5282262810791e-87
6.8330284535404e-85
-6.714440332104e-97
-3.8975370035507e-101
0
0
0
3.2799746460663e-74
4.1440966090065e-72
2.7083325636549e-71
1.6509550157116e-70
6.5975952880469e-70
4.2741753240998e-70
6.9525407311158e-72
-2.2599309487839e-78
0
0
0
1.6107964844999e-70
8.001568505862e-70
2.7414944102489e-69
0
-1.5709099088952e-87
3.9437411366297e-69
5.5721574451742e-71
-6.317923586897e-78
0
0
3.7220954047978e-66
1.4710088339475e-67
6.7037417137407e-66
3.7002553642575e-66
1.5666183828021e-65
9.2520775249038e-65
1.8761602556312e-64
4.9779967517805e-64
1.0728066782033e-63
2.1338502908312e-63
5.3565743141744e-63
1.0205989928032e-62
2.3593026870481e-62
4.5185109953668e-62
7.8746165651593e-62
1.6258717945925e-61
2.4992402232449e-61
4.2072954924134e-61
5.4338129243954e-61
5.7133172920148e-61
6.4304633978653e-61
6.1918085902932e-61
5.9573535393672e-61
5.6130011844215e-61
5.0347628770926e-61
4.1272796930729e-61
3.0920605773653e-61
1.8615326391335e-61
6.9515190305021e-62
1.8070186961027e-62
1.5464697579469e-63
9.9914912455963e-65
4.9370955694108e-65
1.7960385591237e-65
1.1805386532091e-66
1.6812201539807e-67
9.4177697200406e-68
3.2203840400774e-68
9.2367045457964e-69
2.4450530857337e-69
6.2589879024647e-70
1.6175603984717e-70
3.4518649070017e-71
1.7381935692477e-71
0
0
0
0
0
0
0
0
0
4.5505384233175e-85
4.2381310789933e-83
2.0456460295429e-81
7.5346443505628e-80
1.8132382672706e-78
3.4300157817703e-77
6.3346583817001e-76
9.2708942486742e-75
1.6413243365838e-73
2.4458644402635e-72
2.7098340486201e-71
3.0449709134232e-70
3.0923734100504e-69
3.3366563583853e-68
2.7358133822438e-67
1.9187421823909e-66
1.3488760991306e-65
1.2332381830084e-64
9.8007527294113e-64
9.642865262352e-63
2.0816389977366e-62
1.1370010059514e-61
4.92488170907e-61
2.8971021592765e-61
6.114127560592e-60
3.9947685880672e-60
2.9043371636325e-59
4.9342180108128e-58
1.0275179109695e-57
6.7393509858498e-57
3.6764567655754e-56
1.4864565929017e-55
7.8395323449911e-55
3.3180299566688e-54
2.1277264012404e-54
2.4076172043498e-54
8.9856797875872e-55
1.3148754550227e-55
6.0129709083408e-70
5.1006199156969e-55
4.3457202776278e-52
8.9363246916069e-52
7.0119243281682e-52
-2.9673649205499e-68
1.7313374018247e-50
5.1635873852966e-50
0
6.5437027634474e-50
9.4955677457596e-67
3.6774262079805e-50
4.4475607182248e-66
1.3531184037707e-65
2.6708636288189e-50
2.0333244091453e-64
9.5090250454149e-51
1.161778270277e-63
1.900419189717e-63
5.1295532701071e-52
1.1056800151938e-62
1.2212494261331e-52
4.8721973246505e-62
7.2508258932567e-62
4.8156719996948e-52
2.6847839948017e-61
8.2658419525607e-53
5.7602891451685e-61
6.0907616474605e-61
2.3081919463161e-53
1.7836624958163e-57
6.1376541630037e-61
6.0132886749126e-59
5.3899968548447e-61
9.7822652429099e-60
6.9097940044355e-57
7.7262654051463e-57
7.8892245696187e-62
6.5680613016662e-56
1.5873910805812e-58
6.5527271787192e-64
1.3181591330053e-58
1.7508218145891e-58
6.3900904912452e-66
1.1983174101553e-66
3.5741372443379e-59
1.1782707665462e-59
3.8467531572107e-60
4.6109535977788e-60
1.2209997601054e-60
1.191861754575e-60
3.5598360288869e-61
3.7058430780343e-61
0
0
0
0
0
0
0
7.6666374564418e-76
1.249908609079e-73
1.0031583969394e-71
5.2941554069755e-70
2.0700731585479e-68
6.4069837677707e-67
1.6368499580354e-65
3.5510021377554e-64
6.6716252542708e-63
1.1009995013465e-61
1.6133820801804e-60
2.1191898999588e-59
2.518324590547e-58
2.7344961323943e-57
2.742698387355e-56
2.5701008440666e-55
2.2745497988925e-54
1.9180474960662e-53
1.5499486691565e-52
1.2029005735598e-51
8.9601662420275e-51
6.3909593124679e-50
4.3525240438662e-49
2.823038935896e-48
1.7403807484731e-47
1.0185489904745e-46
5.6553399021261e-46
2.9786036915235e-45
1.4884361966418e-44
7.0598379509613e-44
3.1801552364267e-43
1.3613313957731e-42
5.5414828198254e-42
2.1464388605131e-41
7.9161946411583e-41
2.7815141835054e-40
9.3166200507894e-40
2.9762966866308e-39
9.0729060077722e-39
2.6403694753029e-38
7.3385877135343e-38
1.9487617803155e-37
4.9460923176607e-37
1.2002549049886e-36
2.7857155993924e-36
6.1857189956911e-36
1.3145078043241e-35
2.6740505272782e-35
5.2082991100974e-35
9.7136410525956e-35
1.7345902445048e-34
2.9648610943207e-34
4.8474411043609e-34
7.5721795921285e-34
1.1281162529422e-33
1.5982815014173e-33
2.1415754839817e-33
2.6802160575276e-33
3.0600208133195e-33
3.170256376463e-33
3.1567556728364e-33
3.0877978774748e-33
2.9166358777314e-33
2.5965415466876e-33
2.1422263634554e-33
1.6072171479056e-33
1.0747644035905e-33
6.2619905965985e-34
3.1066698539778e-34
1.2921802527503e-34
4.5324894455436e-35
1.393983296136e-35
4.0070692447831e-36
1.1400202994381e-36
3.295492944554e-37
9.6828952524657e-38
2.8689285342414e-38
8.5219193268863e-39
2.5329391311916e-39
7.5359954542813e-40
2.24640016176e-40
6.7127467417308e-41
2.010627467564e-41
6.032328646821e-42
1.8109581532392e-42
5.4336112645495e-43
1.6275538419515e-43
4.8615827608244e-44
1.4480572406558e-44
4.275756619995e-45
1.3002562177554e-45
2.991041826604e-46
2.0326597731442e-46
0
0
0
0
0
0
6.8025870194421e-76
1.6690871623506e-73
1.8123456786752e-71
1.2206685889882e-69
5.864614966922e-68
2.170264551661e-66
6.4958897359542e-65
1.6262076699993e-63
3.4866378582011e-62
6.5133618342439e-61
1.0741504107609e-59
1.5803367894854e-58
2.0921811369982e-57
2.5106555264913e-56
2.749845819206e-55
2.7697216659446e-54
2.588205569894e-53
2.2660436431778e-52
1.8769943530708e-51
1.4828723637325e-50
1.1234389519696e-49
8.1827007414718e-49
5.7305716280327e-48
3.8532260495408e-47
2.482096979138e-46
1.5281340372689e-45
8.9730250312101e-45
5.0167928526706e-44
2.6675407853748e-43
1.3479731955414e-42
6.4713250156142e-42
2.9514471482263e-41
1.2790588456594e-40
5.2687652769803e-40
2.0638602385923e-39
7.6916368985139e-39
2.7286639114607e-38
9.219435759353e-38
2.9683332531106e-37
9.1118256486112e-37
2.6681632023486e-36
7.4569815635938e-36
1.9901500168037e-35
5.0746387032976e-35
1.2369040267076e-34
2.8832045725849e-34
6.4297199784676e-34
1.3721945287313e-33
2.8030457312689e-33
5.4811201773581e-33
1.0259207928524e-32
1.8377479243938e-32
3.1494489675383e-32
5.1606341405996e-32
8.0774407810714e-32
1.2058025024845e-31
1.7123417609748e-31
2.3021485265267e-31
2.8981426812988e-31
3.3406656935976e-31
3.4904455440278e-31
3.4816381100639e-31
3.417280200003e-31
3.24777213306e-31
2.9188065815926e-31
2.4385952285735e-31
1.8599242430452e-31
1.2705856407023e-31
7.6098223245887e-32
3.909629020853e-32
1.6958498293502e-32
6.2236553483046e-33
1.9946751727423e-33
5.9122712444837e-34
1.7155249877779e-34
5.0275589416709e-35
1.4959044406453e-35
4.4931711324318e-36
1.3549350984634e-36
4.0928913870075e-37
1.2385259937181e-37
3.7571023630046e-38
1.1429780711685e-38
3.4859768076048e-39
1.0648879941737e-39
3.2538546744833e-40
9.9306537804074e-41
3.0232072885119e-41
9.1696065955807e-42
2.7707584987764e-42
8.2912686752098e-43
2.5550598582664e-43
5.9147425667075e-44
4.1118596733342e-44
0
0
0
0
0
3.1694837499774e-76
1.0317654312927e-73
1.4546607020595e-71
1.2271961183522e-69
7.1777774856179e-68
3.1629478406102e-66
1.107312279974e-64
3.1960400000583e-63
7.812692396971e-62
1.6498027589695e-60
3.0550023687024e-59
5.0199780769863e-58
7.3899456275949e-57
9.8224711643383e-56
1.1866431792369e-54
1.3106884776842e-53
1.33090876777e-52
1.2495899934021e-51
1.0924954616351e-50
8.9739945328129e-50
6.994826862662e-49
5.2183413269424e-48
3.7451652158662e-47
2.588655389659e-46
1.7203837720248e-45
1.0964181337236e-44
6.6847193554282e-44
3.8922955684042e-43
2.1621569003934e-42
1.1451367555623e-41
5.780202814449e-41
2.7797917864063e-40
1.2733555262869e-39
5.5545876898418e-39
2.3069061836447e-38
9.1204088793489e-38
3.4320819044685e-37
1.2292406473527e-36
4.1903926462032e-36
1.3596938565541e-35
4.200074748681e-35
1.2353770263961e-34
3.4610686183609e-34
9.2402943803504e-34
2.3522893033739e-33
5.7143837347979e-33
1.3260317318878e-32
2.9427948277001e-32
6.2540586197796e-32
1.2744963258017e-31
2.4933746761473e-31
4.686204628936e-31
8.4620164603923e-31
1.4670741063153e-30
2.4386218379931e-30
3.8785609642973e-30
5.8873045578874e-30
8.5007670484328e-30
1.1619576568738e-29
1.4890776692344e-29
1.7529584419005e-29
1.8644436180604e-29
1.8664254325359e-29
1.8405576659033e-29
1.762249104273e-29
1.6025283787114e-29
1.3585473417613e-29
1.0549517924911e-29
7.3679219284053e-30
4.5356057783208e-30
2.4104905083266e-30
1.0884449780277e-30
4.1724015899153e-31
1.3929383137521e-31
4.2620393282694e-32
1.2634583951492e-32
3.758413508097e-33
1.1330290077705e-33
3.4505339054916e-34
1.0564161711228e-34
3.2438125726982e-35
9.9872622377185e-36
3.0847371561922e-36
9.5596523697371e-37
2.9707737966903e-37
9.2459503471802e-38
2.8771337716655e-38
8.9358035459361e-39
2.7657067345457e-39
8.5195550496673e-40
2.6118695649724e-40
7.9210865934397e-41
2.473694591836e-41
5.7599904433697e-42
4.0993273244174e-42
0
0
0
0
0
2.607705268978e-74
6.1337378421378e-72
6.9700345541523e-70
5.0897289084049e-68
2.6947637773363e-66
1.1070716037536e-64
3.6869780018291e-63
1.0268918785969e-61
2.447419963414e-60
5.0779511654258e-59
9.2956861370048e-58
1.5175699976716e-56
2.228627308314e-55
2.9648974424671e-54
3.5953863370505e-53
3.9954952355579e-52
4.0875368199346e-51
3.8658833910061e-50
3.3960600103687e-49
2.7881457648063e-48
2.1572296086306e-47
1.5891482363988e-46
1.1259091002575e-45
7.7269123863956e-45
5.1501342287952e-44
3.3301724431565e-43
2.0828996242729e-42
1.2559319199865e-41
7.2775414504438e-41
4.0408684485036e-40
2.1444425725911e-39
1.0852384161936e-38
5.2274623793109e-38
2.3931242441138e-37
1.0400653287755e-36
4.2877000787868e-36
1.675747360331e-35
6.2063875499255e-35
2.1776465373017e-34
7.2368331632578e-34
2.2773034984128e-33
6.7841359028357e-33
1.9127004211367e-32
5.1021127744404e-32
1.2873366543304e-31
3.0719912421357e-31
6.9343606356792e-31
1.4816545940529e-30
3.0010994060183e-30
5.7770840284855e-30
1.0608659532119e-29
1.8673144084797e-29
3.1669379027164e-29
5.1988229575438e-29
8.283071687034e-29
1.2808495289879e-28
1.9166738033781e-28
2.760535997987e-28
3.7981936497372e-28
4.9361919353334e-28
5.9383814175795e-28
6.4627687704514e-28
6.5178270828981e-28
6.4524457916166e-28
6.2260269459205e-28
5.7335487492719e-28
4.9364384279102e-28
3.9059231974084e-28
2.7899836110328e-28
1.7648857807742e-28
9.6935526281019e-29
4.549466475711e-29
1.8188531479153e-29
6.3215139579536e-30
1.9983883467643e-30
6.0618761212839e-31
1.8327356929274e-31
5.6018458388912e-32
1.7302464462479e-32
5.3793783789786e-33
1.6795360304703e-33
5.2636701561725e-34
1.6563080532946e-34
5.2324667311019e-35
1.6580414740958e-35
5.2612535143893e-36
1.6683396752113e-36
5.275583626668e-37
1.6606740869917e-37
5.1966939760982e-38
1.6166254048942e-38
4.9691550719001e-39
1.5727452152467e-39
3.6817567278315e-40
2.6849087303864e-40
0
0
0
0
7.6611944566261e-85
1.0419631101176e-72
2.1480069955115e-70
2.1892416850843e-68
1.4659409014456e-66
7.2482564134201e-65
2.8220963183016e-63
9.0129974867986e-62
2.4300819257627e-60
5.649265767501e-59
1.1504072605336e-57
2.0779355285293e-56
3.3623493427438e-55
4.9129359314934e-54
6.5250574257512e-53
7.9217640680559e-52
8.8340388022369e-51
9.0871249511634e-50
8.6545855563239e-49
7.6567662566764e-48
6.3141190988722e-47
4.8788316842125e-46
3.5643533753623e-45
2.4958605113197e-44
1.702021198679e-43
1.1456961760476e-42
7.6636776400895e-42
5.0878357483719e-41
3.3282287560968e-40
2.123682162749e-39
1.3083632589297e-38
7.7153880406276e-38
4.3261862302189e-37
2.2958547340285e-36
1.1495485765503e-35
5.4200809189659e-35
2.4037114991283e-34
1.002061017512e-33
3.9257484771072e-33
1.4451852316111e-32
4.9989835285196e-32
1.6247342030714e-31
4.9613016052472e-31
1.4231940611216e-30
3.8343030514554e-30
9.6982095568891e-30
2.3014505679687e-29
5.119121240987e-29
1.0658691677199e-28
2.0743755508674e-28
3.7692436744818e-28
6.3956633951537e-28
1.0163904419953e-27
1.5235827996568e-27
2.1793217887197e-27
3.0172002150422e-27
4.0974179607823e-27
5.5054471675909e-27
7.3291096503628e-27
9.6046032228564e-27
1.2218236709132e-26
1.4741446874811e-26
1.634577239291e-26
1.6668003796623e-26
1.6552440002334e-26
1.6087236236979e-26
1.5002931243731e-26
1.3123609018719e-26
1.0587148979384e-26
7.737608223577e-27
5.029846750498e-27
2.8536002782121e-27
1.3906790223873e-27
5.7929194880383e-28
2.0954737311011e-28
6.8497363234613e-29
2.1291919725783e-29
6.550967309243e-30
2.0316881804056e-30
6.3669897195394e-31
2.0107437452592e-31
6.3856101608694e-32
2.0380891238765e-32
6.5378113269918e-33
2.1069889859166e-33
6.8132766298695e-34
2.2059476112623e-34
7.1330246360088e-35
2.2978078788329e-35
7.3595126310479e-36
2.3401674188762e-36
7.3884904169363e-37
2.3020440146824e-37
7.3850987558893e-38
1.7371142247975e-38
1.2994574443653e-38
0
0
0
0
4.2413517208842e-83
2.704197171239e-71
5.2026286330091e-69
4.9818995095413e-67
3.1589443301432e-65
1.4903876436155e-63
5.5763008100375e-62
1.7223650565275e-60
4.5165927348557e-59
1.0263127010446e-57
2.0519654725337e-56
3.6540047453178e-55
5.8507998946158e-54
8.4879712994335e-53
1.1228495144463e-51
1.3615541907268e-50
1.519974942143e-49
1.5684469344574e-48
1.5015619178023e-47
1.3375060421206e-46
1.1104224303643e-45
8.6089662283106e-45
6.268121348025e-44
4.3466177693955e-43
2.941017912921e-42
1.9970236565374e-41
1.3866521908846e-40
9.8414851477896e-40
7.0178715162474e-39
4.9133905170354e-38
3.3105076459386e-37
2.117097225293e-36
1.2744917842761e-35
7.1908974398143e-35
3.7949396538241e-34
1.8720078328818e-33
8.6318981522991e-33
3.7219367069012e-32
1.5014988236997e-31
5.6703806411871e-31
2.005592020997e-30
6.6463323534546e-30
2.0641787612558e-29
6.0089901964632e-29
1.6395589943598e-28
4.1916401447602e-28
1.0034190126961e-27
2.2468716425149e-27
4.6996126379893e-27
9.1641431707756e-27
1.6616029604158e-26
2.7918955764019e-26
4.3321946561346e-26
6.2019927990548e-26
8.2382172880333e-26
1.0306339119963e-25
1.2409142845965e-25
1.4697038157927e-25
1.7403787000172e-25
2.0750697979969e-25
2.478617209525e-25
2.9078927753554e-25
3.2330260946483e-25
3.3306279531762e-25
3.3158568198963e-25
3.2424710598482e-25
3.0588705823776e-25
2.7175816225372e-25
2.2361161656117e-25
1.6733750260114e-25
1.1184467071503e-25
6.5536847213194e-26
3.3134715043365e-26
1.4361586959813e-26
5.4019396117627e-27
1.8263657621846e-27
5.8251126502617e-28
1.8266037153994e-28
5.7544654118057e-29
1.8310139028879e-29
5.8767043681868e-30
1.8992710781442e-30
6.1772140923363e-31
2.0215196801566e-31
6.6517381738203e-32
2.1969207516746e-32
7.263862334254e-33
2.3969531875616e-33
7.8709491892408e-34
2.5662230666046e-34
8.2946659052994e-35
2.6585134573563e-35
8.3974760409783e-36
2.7310848105418e-36
6.4506603220999e-37
4.9564562295198e-37
0
0
0
0
5.062413497074e-82
5.1361865505515e-70
9.488314877447e-68
8.7430668154966e-66
5.3505146485491e-64
2.4442118472831e-62
8.8838381729328e-61
2.6742975877104e-59
6.8560561014071e-58
1.527590994658e-56
3.0033430296401e-55
5.2740507603588e-54
8.3509119832355e-53
1.2012184736566e-51
1.5798529614057e-50
1.9094783095606e-49
2.1294295672716e-48
2.1994280378908e-47
2.1117472888548e-46
1.8904948938281e-45
1.5802049908196e-44
1.2327533947583e-43
8.986326557112e-43
6.1889063876933e-42
4.1457265597771e-41
2.8191284965956e-40
2.0106199732818e-39
1.5034818662236e-38
1.1453493932181e-37
8.5828085764691e-37
6.1590472530683e-36
4.163864556765e-35
2.6295557398763e-34
1.545541092019e-33
8.4468810764205e-33
4.2949737286383e-32
2.0341653145425e-31
8.9860805637063e-31
3.7075042217485e-30
1.4302357900684e-29
5.163322809536e-29
1.7454816277798e-28
5.5275043568161e-28
1.6399684716314e-27
4.5581802781608e-27
1.1863772995588e-26
2.8894293703552e-26
6.578010856398e-26
1.3977293040149e-25
2.7669956306035e-25
5.0872350898362e-25
8.6488513569661e-25
1.3534521782911e-24
1.9383806776294e-24
2.5252049747275e-24
3.001509549622e-24
3.329845001967e-24
3.5659946310741e-24
3.7874915344062e-24
4.0570941470138e-24
4.417144312422e-24
4.8626471004803e-24
5.2786625085769e-24
5.4529898426191e-24
5.4420290054398e-24
5.3509895584042e-24
5.0963017018683e-24
4.5924900927538e-24
3.8457590385024e-24
2.9391273143295e-24
2.0143888787919e-24
1.2163068306417e-24
6.3701541563966e-25
2.8717538681741e-25
1.1241679038294e-25
3.9384175171509e-26
1.2916163380564e-26
4.1346827055184e-27
1.3245033962386e-27
4.281725023165e-28
1.3973385147018e-28
4.5983885097982e-29
1.5250679679321e-29
5.0955995776903e-30
1.7134198355885e-30
5.7853527843678e-31
1.9551908784468e-31
6.589498258914e-32
2.2072570073201e-32
7.3298808844842e-33
2.4093155836222e-33
7.8415412838909e-34
2.5116433120343e-34
8.2831184185913e-35
1.9630795460705e-35
1.5517863829937e-35
0
0
0
0
5.6579787317288e-82
7.6227197180957e-69
1.3729530850245e-66
1.2342279989532e-64
7.376649053585e-63
3.2954031301426e-61
1.1730372919523e-59
3.4637090855937e-58
8.7238543846737e-57
1.91264130217e-55
3.7063082345224e-54
6.4260557426115e-53
1.0064573504458e-51
1.4347325619219e-50
1.8738838096841e-49
2.2539440843001e-48
2.5065796019744e-47
2.586592372783e-46
2.4853974708869e-45
2.2309679287842e-44
1.8744496288679e-43
1.4726425394209e-42
1.0788775193345e-41
7.4080246314247e-41
4.9053382264406e-40
3.3059948706115e-39
2.3791444978978e-38
1.8342416554958e-37
1.4590920394172e-36
1.1450280449622e-35
8.5864540088087e-35
6.0448907219893e-34
3.961718706228e-33
2.4091340185872e-32
1.3584342525548e-31
7.1078702373776e-31
3.4561605958808e-30
1.5644220986862e-29
6.6033618476841e-29
2.603067033873e-28
9.5949464141436e-28
3.3099534122098e-27
1.0692320953936e-26
3.235300312404e-26
9.1695208487273e-26
2.433524761795e-25
6.0438258931561e-25
1.4033347638604e-24
3.0422757414064e-24
6.1466784502631e-24
1.1542593760177e-23
2.0069707288695e-23
3.2150238171095e-23
4.708439696465e-23
6.2259945961412e-23
7.3473892619731e-23
7.8291503088203e-23
7.8954578957551e-23
7.8605439544491e-23
7.7395601743077e-23
7.5525246029949e-23
7.559764405715e-23
7.6308786315369e-23
7.6733235213681e-23
7.6437504167339e-23
7.4969686295095e-23
7.1280465260219e-23
6.4608167615255e-23
5.4835271000683e-23
4.2766415622543e-23
3.0077559770189e-23
1.8731046774149e-23
1.0166632251119e-23
4.7675540795063e-24
1.9428569899781e-24
7.0601996016888e-25
2.3846815797527e-25
7.805848493502e-26
2.5456594951346e-26
8.3670837341267e-27
2.778031031634e-27
9.3138572311384e-28
3.1518928012287e-28
1.0760509291013e-28
3.7007690221056e-29
1.2786419035811e-29
4.4209828557706e-30
1.5231212843059e-30
5.2084320581042e-31
1.7628394944759e-31
5.8956232089116e-32
1.9493137603325e-32
6.3330537260029e-33
2.1185489315597e-33
5.033591578592e-34
4.1014579326993e-34
0
0
0
0
3.8385470378529e-83
9.2145701224194e-68
1.6329386161193e-65
1.4443278759075e-63
8.4959381622809e-62
3.7371737497709e-60
1.3106301434501e-58
3.8153758366634e-57
9.4806678944919e-56
2.0522271331372e-54
3.9297147763101e-53
6.7389433290386e-52
1.0450402307037e-50
1.4768055896968e-49
1.91469535674e-48
2.2897564007225e-47
2.5360538651863e-46
2.6106992157615e-45
2.5062454548324e-44
2.2508905543919e-43
1.8963778488694e-42
1.4986948813266e-41
1.1059577609843e-40
7.6074381769134e-40
4.9841281137019e-39
3.2959734289464e-38
2.3457446651598e-37
1.8228456189349e-36
1.4841782465668e-35
1.2003319817456e-34
9.2913948360813e-34
6.7507178498583e-33
4.5639053926303e-32
2.8619951429725e-31
1.6638328962131e-30
8.9726091018982e-30
4.4932525861251e-29
2.092203583721e-28
9.0715617833544e-28
3.6681767570013e-27
1.3852383411635e-26
4.8913586562367e-26
1.6164641725636e-25
5.0025277433596e-25
1.4501106357427e-24
3.936806680567e-24
1.0004493422848e-23
2.3776899493245e-23
5.2777462229296e-23
1.0920959040294e-22
2.1012183567554e-22
3.7459966848264e-22
6.1572321605204e-22
9.25628940144e-22
1.2530488095583e-21
1.4908814852154e-21
1.5633221788663e-21
1.5560482223536e-21
1.5175207990032e-21
1.4292136704553e-21
1.2899337229776e-21
1.1448262536244e-21
1.0369980203398e-21
9.7468823484832e-22
9.3578199784625e-22
8.9822658229163e-22
8.4677397647765e-22
7.6972261763554e-22
6.6124679914692e-22
5.2595384984063e-22
3.7965991037479e-22
2.4403512118666e-22
1.3738818428369e-22
6.7068598544984e-23
2.8474614787961e-23
1.0744074629742e-23
3.7424859374269e-24
1.2542694426655e-24
4.1682841006054e-25
1.3938480979958e-25
4.7105208366041e-26
1.6097703269446e-26
5.5618652432092e-27
1.9415470628401e-27
6.8353037569289e-28
2.4188006302207e-28
8.564253505163e-29
3.0189786865737e-29
1.0548249540818e-29
3.6415055807306e-30
1.2399330064423e-30
4.1669752490468e-31
1.3737168915318e-31
4.6632954855285e-32
1.1096120820312e-32
9.3415337640136e-33
0
0
0
2.8710274148055e-95
5.614351441624e-81
9.3363278349606e-67
1.6373793068134e-64
1.4329198141347e-62
8.3390273744244e-61
3.6292639312934e-59
1.2594713095357e-57
3.628888082744e-56
8.9270668653998e-55
1.9135915416262e-53
3.6298725536779e-52
6.1687692696247e-51
9.4849833198207e-50
1.3298700745319e-48
1.7119851589356e-47
2.0348851221385e-46
2.2428839828795e-45
2.3008453341385e-44
2.2039462990767e-43
1.9772764992313e-42
1.6665811927528e-41
1.3216289174056e-40
9.8235324568966e-40
6.799606650861e-39
4.4280101510626e-38
2.8567992042224e-37
1.9721600669514e-36
1.508908204729e-35
1.2343197087408e-34
1.0158925835726e-33
8.0491218275506e-33
6.0005710213386e-32
4.1682340033204e-31
2.6889729410869e-30
1.6100511629776e-29
8.9524351321585e-29
4.6272120424599e-28
2.2255401111432e-27
9.9706855857978e-27
4.1652186966575e-26
1.6243321443603e-25
5.9204601985792e-25
2.0190051327801e-24
6.4466497748905e-24
1.9277883587599e-23
5.3977421181279e-23
1.4140918267262e-22
3.4620172549242e-22
7.907542853885e-22
1.6814341558514e-21
3.3190266993533e-21
6.0602068183407e-21
1.0184657185721e-20
1.5623071720364e-20
2.1507362793657e-20
2.5788103561047e-20
2.6953094538567e-20
2.6748972249285e-20
2.5839446265318e-20
2.3768124532424e-20
2.0425923527692e-20
1.6644010088315e-20
1.3447091262496e-20
1.13806928968e-20
1.0218626418849e-20
9.4638261712646e-21
8.7702481242268e-21
7.9422635415636e-21
6.8746286819836e-21
5.5623624292975e-21
4.1168476176353e-21
2.7312098165732e-21
1.5958108310097e-21
8.1167160678148e-22
3.5940623614562e-22
1.4099547472361e-22
5.072085720671e-23
1.7424917635836e-23
5.9054377202656e-24
2.0099210536814e-24
6.9160056780038e-25
2.4099300356425e-25
8.5051472499678e-26
3.0377089443261e-26
1.0955643113098e-26
3.9741542682709e-27
1.4423312204526e-27
5.2073268805238e-28
1.8607998570973e-28
6.5581721476023e-29
2.2753140028527e-29
7.7771461143994e-30
2.6029231818984e-30
8.9713394800592e-31
2.135072058763e-31
1.8625043816262e-31
0
0
0
3.9029736849695e-92
1.3644720649101e-79
8.0962478582718e-66
1.410731271684e-63
1.2261874100559e-61
7.0857921849973e-60
3.0617107008133e-58
1.0548037206293e-56
3.0170785235748e-55
7.3680156984831e-54
1.5679339085575e-52
2.9528216711245e-51
4.9824698829373e-50
7.6075845798061e-49
1.0594981812133e-47
1.3552260116037e-46
1.6013768749488e-45
1.7560864173331e-44
1.7940247742851e-43
1.7131588825115e-42
1.5336248170326e-41
1.2910271451026e-40
1.0246063135077e-39
7.6540741391958e-39
5.3426854254181e-38
3.4830206041252e-37
2.1970729464012e-36
1.4502631269133e-35
1.0656494831275e-34
8.5772160653243e-34
7.0946885534424e-33
5.7143607987883e-32
4.3534349793493e-31
3.0986154481593e-30
2.0519387254801e-29
1.2634180832133e-28
7.238030426063e-28
3.8623587484005e-27
1.9222300435883e-26
8.9340113028846e-26
3.8813221942284e-25
1.5768689127382e-24
5.9919489479996e-24
2.1298296192985e-23
7.0818601219725e-23
2.2024596779507e-22
6.403278458792e-22
1.7386757465712e-21
4.4029572164402e-21
1.0379113256381e-20
2.2721669840061e-20
4.6057119388452e-20
8.6108965153166e-20
1.4773763108631e-19
2.3058059092799e-19
3.2139084584901e-19
3.8724138065544e-19
4.0390025520557e-19
4.0009309678634e-19
3.8390239074816e-19
3.4725078920682e-19
2.8854437328554e-19
2.2104905823877e-19
1.620656765975e-19
1.2246254105602e-19
1.0063881038521e-19
8.865460933102e-20
8.0203664818103e-20
7.2038919261352e-20
6.2593547103442e-20
5.1363829655432e-20
3.8895803782611e-20
2.6600338885438e-20
1.6122256113271e-20
8.5450942859468e-21
3.9494466575751e-21
1.6132076042127e-21
6.0039649059154e-22
2.1176788120452e-22
7.3262518092065e-23
2.5390170933337e-23
8.8968937589674e-24
3.1616283173202e-24
1.1400800294365e-24
4.1681450142359e-25
1.5410036940922e-25
5.7350022693924e-26
2.1354981678312e-26
7.9045972018824e-27
2.8919700679107e-27
1.0416230656279e-27
3.6857119329511e-28
1.2823600546518e-28
4.3600632807897e-29
1.5267761947267e-29
3.6282552383266e-30
3.2913312015973e-30
0
0
0
3.1271377963545e-91
9.6369249447444e-79
6.1046270537479e-65
1.0597804281477e-62
9.1740428779808e-61
5.2782247627566e-59
2.2701139968765e-57
7.7831072971149e-56
2.2151453744383e-54
5.3819862184809e-53
1.1393153429851e-51
2.1342269473176e-50
3.5817264158458e-49
5.4388853239304e-48
7.5333247282293e-47
9.5837244401172e-46
1.126452465017e-44
1.2292064791297e-43
1.2502963699886e-42
1.1896003189335e-41
1.0618365441396e-40
8.9180336457813e-40
7.0688237454819e-39
5.2908325484151e-38
3.7199970776966e-37
2.4420818311339e-36
1.5212124479437e-35
9.5753998571992e-35
6.6039418147666e-34
5.0930569911665e-33
4.1629277388806e-32
3.3809704302199e-31
2.622900834941e-30
1.9093213261459e-29
1.2959430534606e-28
8.193177625123e-28
4.8296611676719e-27
2.6590017968701e-26
1.3696161461894e-25
6.6104843722743e-25
2.9936125903796e-24
1.2726600490678e-23
5.0754288050695e-23
1.8955975532855e-22
6.6171969063907e-22
2.1552412900412e-21
6.5405036517535e-21
1.8471154224226e-20
4.8481756053878e-20
1.18067120752e-19
2.6617622480502e-19
5.5390892166915e-19
1.0598253509926e-18
1.8545862351926e-18
2.9417037983722e-18
4.1469313469004e-18
5.0185311294349e-18
5.2289565717667e-18
5.1717595075818e-18
4.9357210161322e-18
4.4063300041719e-18
3.5687406757332e-18
2.6090539334363e-18
1.7682792135894e-18
1.2009279466683e-18
8.9402788267979e-19
7.4093278026525e-19
6.5108211984589e-19
5.7869986456686e-19
5.037685419078e-19
4.1838129636502e-19
3.2349879018516e-19
2.2765252058213e-19
1.4292785772426e-19
7.8877773356528e-20