/*--------------------------------*- C++ -*----------------------------------*\
  =========                 |
  \\      /  F ield         | OpenFOAM: The Open Source CFD Toolbox
   \\    /   O peration     | Website:  https://openfoam.org
    \\  /    A nd           | Version:  7
     \\/     M anipulation  |
\*---------------------------------------------------------------------------*/
FoamFile
{
    version     2.0;
    format      ascii;
    class       surfaceScalarField;
    location    "3.6";
    object      alphaPhi0.water;
}
// * * * * * * * * * * * * * * * * * * * * * * * * * * * * * * * * * * * * * //

dimensions      [0 3 -1 0 0 0 0];

internalField   nonuniform List<scalar> 
11840
(
0
0
0
0
0
0
0
0
0
0
0
0
0
0
0
0
0
0
0
0
0
0
0
0
0
0
0
0
0
0
0
0
0
0
0
0
0
0
0
0
0
0
0
0
0
0
0
0
0
0
0
0
0
0
0
0
0
0
0
0
0
0
0
0
0
0
0
0
0
0
0
0
0
0
0
0
0
0
0
0
0
0
0
0
0
0
0
0
0
0
0
0
0
0
0
0
0
0
0
0
0
0
0
0
0
0
0
0
0
0
0
0
0
0
0
0
0
0
0
0
0
0
0
0
0
0
0
0
0
0
0
0
0
0
0
0
0
0
0
0
0
0
0
0
0
0
0
0
0
0
0
0
0
0
0
0
0
0
0
0
0
0
0
0
0
0
0
0
0
0
0
0
0
0
0
0
0
0
0
0
0
0
0
0
0
0
0
0
0
0
0
0
0
0
0
0
0
0
0
0
0
0
0
0
0
0
0
0
0
0
0
0
0
0
0
0
0
0
0
0
0
0
0
0
0
0
0
0
0
0
0
0
0
0
0
0
0
1.2192401180618e-216
6.0961964885817e-217
1.1052627427088e-215
5.526313713544e-216
5.2840010980821e-215
2.6420005489956e-215
1.7628202978212e-214
8.8141035905513e-215
3.2051278494993e-215
1.4423075024247e-214
9.7062318627959e-196
0
3.1457976308404e-195
1.5398575646837e-195
5.7196320562361e-196
2.5738344250982e-195
1.0399331013154e-196
4.6796989558632e-196
1.8907874586597e-197
8.5085435603002e-197
1.040445748037e-194
0
6.6089706203561e-194
-3.2020106962636e-219
1.2016310219172e-194
5.4073395984333e-194
1.5534363514499e-194
7.7671817572496e-195
4.8982792137905e-194
8.4218244992388e-195
1.9976281505268e-193
0
6.6872721874152e-193
0
1.215867670443e-193
5.4714045169382e-193
2.2106708560273e-194
9.9480188520426e-194
6.8064756355302e-194
0
1.9387453456827e-193
0
3.5249915376054e-194
1.5862461919222e-193
1.1276039023944e-193
0
2.0501889134443e-194
9.2258501104996e-194
2.1354095483335e-194
1.0677047741667e-194
3.8825628151517e-195
1.7471532668183e-194
5.3058671716475e-195
2.2846174019692e-195
1.3824759492272e-194
0
2.5135926349584e-195
1.1311166857313e-194
5.2387286389724e-195
0
9.5249611617679e-196
4.2862325227956e-195
1.7366820928052e-195
0
2.8853116083549e-195
0
5.2460211060997e-196
2.3607094977449e-195
8.2063931526289e-196
-1.4756538344751e-203
1.4920714822962e-196
6.7143216703328e-196
2.7128572405385e-197
1.2207857582423e-196
4.1022127994035e-197
0
7.4585687261882e-198
3.2961791013355e-197
1.1138375536526e-197
0
2.0251591884605e-198
9.1132163480673e-198
2.7350968148404e-198
3.0061014080453e-199
4.9729032997549e-199
2.2378064848672e-198
4.1040553885784e-199
2.0520276942892e-199
7.4619188884754e-200
3.3578634997416e-199
5.9658215029415e-200
2.9829107514707e-200
4.2695582023723e-200
2.1347791011861e-200
7.7628331289282e-201
3.4932748959683e-200
5.3075913337953e-201
2.6537956668976e-201
6.1353171082626e-201
0
4.5667354985703e-201
2.2833677492851e-201
5.4684815903878e-201
0
9.9427358522198e-202
4.4742074283107e-201
1.1495112749916e-201
0
2.0900227013479e-202
9.405090401333e-202
1.4994502582581e-202
7.4972512912905e-203
2.7263224935215e-203
1.2268191224672e-202
3.0106304150373e-203
0
3.2125840763495e-203
0
6.0487103565401e-204
2.6092807338781e-203
6.2471990130368e-204
0
1.1716466469165e-204
5.0918788407211e-204
1.1777544149462e-204
0
7.7645528449237e-205
3.8822764224619e-205
7.4176622369078e-205
0
7.0460499192874e-205
0
2.7671714504076e-205
4.5658328931725e-205
3.0350985190015e-205
0
2.1327719606379e-205
1.066385980319e-205
2.2715255425917e-205
0
1.5367814526123e-205
7.9708496717774e-206
1.0332143795767e-205
5.1660718978836e-206
9.9108211411964e-206
0
6.3133495259638e-206
3.1566747629819e-206
5.559421741203e-206
0
3.3658520061331e-206
1.6830379644826e-206
2.7517943590357e-206
0
2.1615336351515e-206
0
1.222173384779e-206
6.1108669238948e-207
9.1013169041667e-207
0
5.3027454493398e-207
0
0
0
0
0
0
0
0
0
0
0
0
0
0
0
0
0
0
0
0
0
0
0
0
0
0
0
0
0
0
0
0
0
0
0
0
0
0
1.6727407727638e-161
8.363703863819e-162
9.1985557328383e-158
4.5992778664192e-158
8.3623233774115e-158
8.3623235057497e-159
6.4066659045859e-147
1.9458481558015e-147
6.0750012415625e-131
0
2.4579801814567e-130
0
2.4579801814567e-130
0
1.0210798699741e-128
0
1.1825083862741e-129
3.414982500894e-128
5.9385296974647e-130
5.890667497796e-130
8.922574717914e-130
0
1.4436393654575e-129
5.9169005568792e-130
5.3744056124964e-129
2.6871994411669e-129
3.3615396954445e-130
5.1694514875882e-129
2.4116601144464e-130
9.4987958099814e-131
1.0437804035905e-129
3.1788721413579e-130
4.5243969018403e-129
0
6.6017607950236e-128
0
2.033708868487e-129
6.3983899081749e-128
2.880202790745e-129
0
2.5485652226847e-126
0
2.5485652226847e-126
0
4.4647850823476e-125
1.4075467086137e-125
1.908142466771e-124
9.3336794565799e-125
4.4049478538408e-126
1.8839637463092e-124
8.0146509506162e-126
4.3709743517236e-126
5.7282707940517e-126
1.2163437193073e-126
7.2801851604928e-125
0
1.7171575736788e-124
0
2.5953418376506e-124
0
1.9999564511566e-124
1.1231672658477e-124
1.4882520322395e-124
6.2313532560682e-125
1.0169635446376e-124
0
8.0980495313331e-125
5.057491781781e-125
7.5632893929789e-125
3.9226587655511e-125
7.5608770763284e-125
3.7804348606676e-125
8.4451404061866e-126
6.9096603323453e-125
1.731320276626e-125
0
8.7330012792231e-127
1.276960262179e-125
8.7373550705075e-127
0
5.7505692306719e-128
8.1622981474403e-127
5.7505692306719e-128
0
7.3265265929353e-128
0
2.3690811980317e-129
7.0896184731321e-128
2.4589762147367e-129
0
4.4708658449758e-130
2.0118896302392e-129
8.1288469908651e-131
3.6579811458893e-130
9.3876996412156e-131
0
2.9219085931606e-132
9.0955087818995e-131
2.9220762248471e-132
0
7.9693174041384e-134
2.8423830508057e-132
8.1276553256184e-134
0
8.1276553256184e-134
0
4.4032777485796e-134
0
4.402967419313e-134
0
8.0053953078417e-135
3.6024278885288e-134
5.2361991229339e-136
7.4817753955483e-135
1.8556452270675e-136
0
1.8553872883766e-136
0
7.032009556632e-138
1.7850671928103e-136
6.781224865606e-138
0
1.0449957919669e-138
5.7362290736391e-138
8.0983310223301e-139
0
2.2226485054459e-140
7.8760661717855e-139
2.222261112171e-140
0
1.6728028708647e-140
0
1.1844972809589e-140
0
8.4165609215539e-141
0
2.2830528346996e-142
8.1882556380839e-141
2.2825089641189e-142
0
1.5845628941603e-142
0
2.2886629361465e-143
1.3556966005457e-142
1.6028648369857e-143
0
4.8026112803456e-145
1.5548387241822e-143
3.6443394544524e-145
0
2.2893010145579e-145
0
1.343068794355e-145
0
8.9006827208357e-146
0
2.6168734801371e-147
8.6389953728219e-146
2.3980185268735e-147
0
0
0
0
0
0
0
0
0
0
0
0
0
0
0
0
0
0
0
0
0
0
0
0
0
0
0
0
0
0
0
0
0
0
0
0
-1.7351955418066e-99
-8.6759777090332e-100
-4.8941254987969e-98
-2.4470627493985e-98
-7.8378542163765e-97
-3.9189271081883e-97
-8.9228569493384e-96
-4.4614284746692e-96
-7.7358970496719e-95
-3.867948524836e-95
-5.3697400214605e-94
-2.6848700107303e-94
2.3420000891878e-83
1.2683581900449e-83
1.2203789694585e-82
7.3136498231162e-83
1.3907833895392e-81
1.3546724357051e-81
1.0507381061384e-81
1.3494013367335e-81
1.986249930554e-82
8.5210359822786e-82
6.6166259457123e-84
1.9200835778037e-82
6.6029598887886e-84
0
1.2005360608865e-84
5.4024238279021e-84
2.1827964751607e-85
9.8225641337041e-85
3.9687211936769e-86
1.785924355793e-85
7.2158567182451e-87
3.2471355218523e-86
4.2363486380433e-87
2.9795080802017e-87
2.5782326092882e-76
1.1607010538047e-76
3.9395224341168e-74
1.8659651226879e-74
2.5214544535081e-73
1.5812064641545e-73
1.4431757625997e-72
8.9000345946594e-73
3.415791111407e-72
3.4185188522571e-72
1.7275860681961e-72
2.9204565029216e-72
4.3384400345765e-73
1.1546834514107e-72
8.0201207924038e-74
3.5364276323301e-73
1.4568639505864e-74
6.5632568418174e-74
2.6506724207941e-75
1.191796708507e-74
7.321908411814e-76
1.9184815796127e-75
1.1778784417075e-72
8.8992478167085e-73
7.0832806537877e-72
5.4107682495989e-72
1.5113685625832e-71
1.5122984061641e-71
2.7467127825559e-72
1.2366972843276e-71
2.4981298829569e-73
2.4968997942603e-72
1.8945335313453e-71
0
3.4926625291872e-72
1.5717448813956e-71
6.3504409032773e-73
2.8576184039462e-72
1.0496611136499e-73
5.3007797896273e-73
1.0496611136321e-74
9.4469500228674e-74
1.782412135315e-68
0
1.8935399412393e-69
1.7041859471154e-68
3.4502070639836e-68
1.18694596822e-68
2.6718364898007e-68
9.4955677457598e-68
1.4740185860543e-67
1.1609815251652e-67
7.0590131387621e-67
3.4421433078379e-67
1.4157957154354e-66
1.1528212716336e-66
3.7151294401862e-66
2.6083137651634e-66
7.854975794142e-66
6.3501609299768e-66
1.5849204444166e-65
1.2667217195059e-65
3.8637296630467e-65
2.8305972167587e-65
7.4701499385442e-65
6.0280975146742e-65
1.6838650688603e-64
1.2459188686351e-64
3.1543165884416e-64
2.6381885741943e-64
5.5237436711653e-64
4.6126342664167e-64
1.0849593964158e-63
8.5638049603903e-64
1.6536717616696e-63
1.4432952088622e-63
2.5862689921834e-63
2.2082162447316e-63
3.0396895630593e-63
3.0409580069427e-63
3.1717334762087e-63
3.2443686213429e-63
3.3688123515259e-63
3.3688121776327e-63
3.2692699999183e-63
3.5233908705345e-63
3.1216592098414e-63
3.398101531538e-63
2.8870817564554e-63
3.1965638257741e-63
2.5094404816407e-63
2.8642484674801e-63
1.9441615369936e-63
2.3431454104506e-63
1.3283106415366e-63
1.6321544713106e-63
6.7978412631521e-64
9.8868418725681e-64
2.0328219728285e-64
4.35293758266e-64
4.269185455123e-65
1.1253438421675e-64
6.9258812036935e-66
2.6899584744846e-65
1.1045487999444e-66
5.5519135157962e-66
2.8257745360949e-67
7.321240806606e-67
6.8323744233627e-68
1.8493031639936e-67
1.2668137538881e-68
5.3598943048668e-68
2.0655414094312e-69
1.0301951594678e-68
5.2948294577767e-70
1.3680746787057e-69
1.3538755244649e-70
3.3737927571144e-70
3.4332726312257e-71
8.5059408676995e-71
8.6653463018852e-72
2.1493493177235e-71
2.1896406807916e-72
5.4183012339828e-72
5.4019488620322e-73
1.3781174607961e-72
1.6189801156304e-73
3.20727307406e-73
1.3287151221935e-73
0
0
0
0
0
0
0
0
0
0
0
0
0
0
0
0
0
0
4.7470175711974e-87
2.3928099732293e-87
4.4321224816385e-85
2.2721640922261e-85
2.1303173072867e-83
1.0907674532083e-83
7.7303236094967e-82
3.9986227354988e-82
1.8436006619209e-80
9.7488975480024e-81
3.4584197443652e-79
1.836029193793e-79
6.3559762524665e-78
3.3869973552011e-78
9.3594100141474e-77
5.0586357311466e-77
1.6426186984101e-75
8.7363481103335e-76
2.4112818071487e-74
1.316566623887e-74
2.6593518993681e-73
1.4489970869783e-73
2.9616910308426e-72
1.6310834465809e-72
3.0184086389176e-71
1.6747346496405e-71
3.2067526556637e-70
1.7635935006015e-70
2.5829384920077e-69
1.4717289638909e-69
1.7920407451023e-68
1.0310433971989e-68
1.2737234346335e-67
7.2491797707497e-68
1.1734482539692e-66
6.6320605974291e-67
9.4411554773345e-66
5.2997137481022e-66
7.7149358316045e-65
5.1394760423925e-65
1.6628873794518e-64
1.1299725617454e-64
9.866811063656e-64
5.7922963249135e-64
2.554806145941e-63
2.6435660604195e-63
1.5534125841098e-63
2.1391615017648e-63
3.1645452455477e-62
2.9948261024707e-62
2.6978488646842e-62
2.9948261024707e-62
2.4275272867986e-61
1.1512578264043e-61
3.7786967348243e-60
2.2900696222529e-60
8.2431700228022e-60
8.1148119223309e-60
6.1464328603587e-59
3.2459247689324e-59
3.2331683015336e-58
2.2701559733637e-58
1.3996705713501e-57
7.9973213938849e-58
6.5731704335776e-57
4.2057626453897e-57
1.716712621801e-56
1.7230882110809e-56
1.1251188898037e-56
1.6313261169996e-56
1.2221149990103e-56
6.5253044679985e-57
5.5157541250985e-57
1.1419282818997e-56
1.5261385071007e-57
3.5045358665446e-57
3.230175171567e-58
1.203120989944e-57
2.4390972717364e-57
0
2.7987233888372e-54
1.4616682008317e-54
4.5858041580576e-54
4.5938143454709e-54
3.6323509752659e-54
3.3409558876153e-54
3.6323509752659e-54
0
9.6278261312163e-53
4.6773382426614e-53
2.7675037984682e-52
2.2050308858261e-52
8.8858172466725e-53
1.8789220738009e-52
2.9190694847087e-52
1.6036588260553e-52
6.9686435003118e-53
2.2222051346776e-52
1.8436681477193e-52
1.0691058840369e-52
2.7926965836358e-53
1.5643984893558e-52
2.7926965836359e-53
0
1.1360141513019e-52
0
2.0740539073856e-53
9.2860876056341e-53
4.2162805161193e-53
0
7.6791756272583e-54
3.4483629533952e-53
1.3966256028129e-54
6.2825500244765e-54
2.2795719110808e-54
0
4.1449638189043e-55
1.865075529355e-54
5.848229733738e-55
0
9.6485180389531e-56
4.8833779369077e-55
9.6485181498112e-56
0
3.6440755999949e-55
0
3.644075635997e-55
0
3.9273967862163e-55
0
6.6423520939932e-56
3.2631616441873e-55
1.2079018033327e-56
5.4344509754532e-56
1.5788921786572e-56
0
1.5789197903991e-56
0
5.2216189847666e-58
1.5267042825049e-56
5.2217902270483e-58
0
2.9062198185075e-59
4.9312174809043e-58
2.887963317864e-59
0
3.2102290091134e-59
0
3.6220598903781e-59
0
3.6221024733786e-59
0
4.4351940318184e-59
0
4.4484948067212e-59
0
9.8564563238046e-61
4.3499306691872e-59
1.0105778203087e-60
0
9.850283383402e-61
0
1.0309075364072e-61
8.8193762683582e-61
1.0309076179432e-61
0
6.9610396586332e-62
9.956824444578e-62
3.4734843797566e-62
2.4892061111444e-62
2.5062873587319e-62
1.2446030555722e-62
1.1012451279586e-62
1.2446030555722e-62
7.2501762236112e-63
3.1115076389306e-63
3.2677013313047e-63
3.5004460937969e-63
1.831909198774e-63
1.2640499783155e-63
1.5557538194653e-63
0
0
0
0
0
0
0
0
0
0
0
0
0
0
8.1118679040774e-78
4.0590658886572e-78
1.3150896873128e-75
6.6137391054054e-76
1.0493806925384e-73
5.3074275848335e-74
5.5053508837371e-72
2.8012604202318e-72
2.1396814319745e-70
1.0955551934274e-70
6.5818978362113e-69
3.3917095583684e-69
1.6710818149124e-67
8.6676502169921e-68
3.602248206991e-66
1.8809375229604e-66
6.7237006012281e-65
3.5349711645089e-65
1.1020978502245e-63
5.8354001414951e-64
1.6037234112545e-62
8.5535662354298e-63
2.0914814414328e-61
1.1238282574126e-61
2.4676492206408e-60
1.3358224929547e-60
2.6608654930707e-59
1.4507741295493e-59
2.6514497324458e-58
1.4553155947455e-58
2.4698875504627e-57
1.3638095035255e-57
2.1743188774842e-56
1.206959804594e-56
1.8247683378232e-55
1.0177144324951e-55
1.4678648822425e-54
8.2231265779707e-55
1.1339118402454e-53
6.381091147419e-54
8.4040748230674e-53
4.7525454833297e-53
5.9612179092655e-52
3.3894175305709e-52
4.0350328636163e-51
2.3080986637101e-51
2.5995820082288e-50
1.4968860494904e-50
1.5910134334582e-49
9.2273456182686e-50
9.2393298855172e-49
5.3997497184844e-49
5.088097036727e-48
2.9978132876507e-48
2.6569054773715e-47
1.5787176434558e-47
1.3158424784737e-46
7.8878174521467e-47
6.1834822972811e-46
3.7406166680035e-46
2.7587548684692e-45
1.6846283922271e-45
1.16928724976e-44
7.2096051511872e-45
4.7113391221219e-44
2.933927333446e-44
1.8057892593435e-43
1.1360600093519e-43
6.5881553961306e-43
4.1883427975017e-43
2.2892584493316e-42
1.4710716697333e-42
7.5806005858028e-42
4.9251774221939e-42
2.3934067448441e-41
1.5726617702663e-41
7.2084673079102e-41
4.7916656652758e-41
2.0719370257963e-40
1.3937088307679e-40
5.685870966872e-40
3.8714570575695e-40
1.4902941189798e-39
1.0274577499179e-39
3.7321541448982e-39
2.6061586421149e-39
8.9332674075226e-39
6.3202950349996e-39
2.0444141240143e-38
1.4659511040101e-38
4.4747977358227e-38
3.2530234532564e-38
9.3702652589016e-38
6.9083082349752e-38
1.8776433818216e-37
1.4043926043831e-37
3.6010743906946e-37
2.7335402158393e-37
6.6104016522253e-37
5.0947581144514e-37
1.1612737977314e-36
9.0918560079799e-37
1.9514657984067e-36
1.5530188417613e-36
3.1342426636341e-36
2.5374902452491e-36
4.8043289016002e-36
3.9612777768785e-36
7.0128076819689e-36
5.8978504255123e-36
9.7098883288828e-36
8.3505708406236e-36
1.2646091543927e-35
1.118091866298e-35
1.5197721230371e-35
1.3976615233894e-35
1.64723412159e-35
1.5933362221359e-35
1.66296455791e-35
1.6542090823328e-35
1.6548105619001e-35
1.6507934363668e-35
1.600327872591e-35
1.6174879356278e-35
1.4733487798825e-35
1.525865320663e-35
1.2671468859274e-35
1.3592663447025e-35
9.9944147554059e-36
1.1228315213036e-35
7.0928038427374e-36
8.449089423228e-36
4.4330699952276e-36
5.6816330501772e-36
2.3854412213164e-36
3.344455108156e-36
1.0850097438592e-36
1.6900881334685e-36
4.1629291541823e-37
7.2546045880342e-37
1.3838721429613e-37
2.6698481368521e-37
4.2023136764129e-38
8.7210220167986e-38
1.2310421107232e-38
2.6552726102815e-38
3.5959496224136e-39
7.8592413037183e-39
1.0581082516738e-39
2.3149106677329e-39
3.1321528334846e-40
6.8377143488864e-40
9.2954514904329e-41
2.0257908969841e-40
2.7607147707179e-41
6.0112052730785e-41
8.2045051269468e-42
1.78524594663e-41
2.441531701934e-42
5.30745654626e-42
7.2802126288772e-43
1.5804313243296e-42
2.1757449067132e-43
4.7158654059392e-43
6.515446026831e-44
1.4101698316105e-43
1.9537038209446e-44
4.2241916844713e-44
5.8605839463199e-45
1.2666652305506e-44
1.7568534763327e-45
3.798536807069e-45
5.2577003833345e-46
1.1380776524631e-45
1.5695650575547e-46
3.4032053034099e-46
4.6671509666239e-47
1.015279347182e-46
1.3891014488966e-47
3.0105022223183e-47
3.9734264790953e-48
9.0688145112884e-48
1.4533731546741e-48
2.3246024250855e-48
1.3055594144369e-48
0
0
0
0
0
0
0
0
0
0
0
0
7.2049818338572e-78
3.597949671717e-78
1.7607808488385e-75
8.7917155175109e-76
1.9027595807583e-73
9.5249777915742e-74
1.2748874959123e-71
6.4072072740122e-72
6.0914530481084e-70
3.0761193064522e-70
2.241363614276e-68
1.1379416863013e-68
6.6694304278361e-67
3.40553684746e-67
1.6596408424571e-65
8.5255910144257e-66
3.5364151258352e-64
1.8280908388376e-64
6.5644838210548e-63
3.4156002232666e-63
1.0755116111241e-61
5.6340348496986e-62
1.5716939775153e-60
8.2911179865381e-61
2.0663316690285e-59
1.0979495986749e-59
2.4620555894919e-58
1.3179309434193e-58
2.6773240344184e-57
1.4438659566467e-57
2.6777204590016e-56
1.4545912370177e-56
2.4855512885344e-55
1.359389871484e-55
2.1628663903893e-54
1.1901317824016e-54
1.7816748681363e-53
9.8562845966083e-54
1.4005200722847e-52
7.7845813204344e-53
1.0560058780585e-51
5.8958052615187e-52
7.6548220772678e-51
4.2929250512713e-51
5.3338795630109e-50
3.0055819697143e-50
3.5668732594361e-49
2.0204194866392e-49
2.2838546374979e-48
1.3011639098948e-48
1.3968481320594e-47
8.0089908589706e-48
8.1436033831814e-47
4.7017934465551e-47
4.5181098666498e-46
2.628232107778e-46
2.3827221610241e-45
1.3972223599867e-45
1.193634320709e-44
7.0592011900412e-45
5.6783601350631e-44
3.3883504601288e-44
2.5652514474283e-43
1.5450733811164e-43
1.1007453884038e-42
6.6945050392479e-43
4.4879779371201e-42
2.7570330819034e-42
1.7394712290524e-41
1.0797084119434e-41
6.4121563028548e-41
4.0227479566982e-41
2.2492588433513e-40
1.4266388608345e-40
7.5119954920333e-40
4.8184602046911e-40
2.3899259978969e-39
1.550725606815e-39
7.247016332825e-39
4.7579906615802e-39
2.0956171829943e-38
1.3925272888904e-38
5.7819570456457e-38
3.8896027049539e-38
1.5229270149839e-37
1.0374275694275e-37
3.8313422608402e-37
2.6435525891613e-37
9.2109663924031e-37
6.438932138316e-37
2.1170710028073e-36
1.4998114729532e-36
4.6537475554596e-36
3.3421836283236e-36
9.7864680695426e-36
7.1273969075688e-36
1.9691292309966e-35
1.4548871402886e-35
3.791088488521e-35
2.8429270716391e-35
6.9832085097084e-35
5.3177265134914e-35
1.2303896612205e-34
9.5199549299949e-35
2.0726991910544e-34
1.630574886226e-34
3.335930792648e-34
2.6704450644053e-34
5.1234977978807e-34
4.1777372729838e-34
7.4943833153974e-34
6.2335730045495e-34
1.0404577833097e-33
8.847975581542e-34
1.3609896630289e-33
1.1889013930986e-33
1.6485535714765e-33
1.4952894166983e-33
1.8052669605893e-33
1.7212656210456e-33
1.8298551242189e-33
1.8012263008262e-33
1.8247677035382e-33
1.8021506016794e-33
1.7719796620737e-33
1.7709361278042e-33
1.6455766029305e-33
1.681805042382e-33
1.4306052828281e-33
1.5121552329946e-33
1.1448741843213e-33
1.2648769820135e-33
8.2796381424306e-34
9.6743453291102e-34
5.3024753698098e-34
6.64321626234e-34
2.9432755546568e-34
4.0161586128928e-34
1.3904538475091e-34
2.0977544787188e-34
5.5643844518378e-35
9.3579147394719e-35
1.9259146098257e-35
3.585157741335e-35
6.0408932627784e-36
1.2144151004901e-35
1.8106939571214e-36
3.8049694074883e-36
5.3776868205043e-37
1.1504177774905e-36
1.6049761843175e-37
3.4456228011533e-37
4.8184049014595e-38
1.033079245752e-37
1.4513742943398e-38
3.1063298526552e-38
4.3786678189082e-39
9.3599194802978e-39
1.3228043748751e-39
2.8246092456017e-39
4.0039613099898e-40
8.5384013848453e-40
1.2149916441669e-40
2.5866894857478e-40
3.6965463745811e-41
7.8561818076622e-41
1.1270895118749e-41
2.3918552601372e-41
3.4407317155957e-42
7.2954665565771e-42
1.0503658238569e-42
2.2270649278858e-42
3.2023318221552e-43
6.7959312577131e-43
9.7388227937087e-44
2.0704820239676e-43
2.9517711176823e-44
6.2906585299188e-44
8.9031890211262e-45
1.9051251800323e-44
2.6859405285982e-45
5.7289102339853e-45
7.7749957016551e-46
1.7499236769126e-45
2.88996039047e-46
4.5201327467981e-46
2.599428393195e-46
0
0
0
0
0
0
0
0
0
0
3.3587209985318e-78
1.6717266458811e-78
1.0901432507891e-75
5.4149238069113e-76
1.5311179730396e-73
7.6050221850892e-74
1.2859696295628e-71
6.3984564714545e-72
7.4849505991877e-70
3.7353683482764e-70
3.28121371497e-68
1.6439012659355e-68
1.1424859267335e-66
5.7501577347197e-67
3.2790512713792e-65
1.6587537368903e-65
7.9692361508456e-64
4.0534769838953e-64
1.6728253906399e-62
8.5583140234072e-63
3.078599322925e-61
1.584721227116e-61
5.0267191220578e-60
2.6041912398308e-60
7.3515623366064e-59
3.8342200254459e-59
9.7057173313193e-58
5.097386015457e-58
1.1644268298286e-56
6.159669803945e-57
1.2770412428318e-55
6.8054680758545e-56
1.2874311616512e-54
6.9123027401406e-55
1.2001558339704e-53
6.4912503305845e-54
1.0421320617153e-52
5.6755637259856e-53
8.5071516981421e-52
4.6614860706823e-52
6.5945800729523e-51
3.6323249800594e-51
4.895560701833e-50
2.7086756112265e-50
3.4969140617915e-49
1.9431585416253e-49
2.4051558031162e-48
1.3426665301036e-48
1.5898168240212e-47
8.9217254069263e-48
1.0071841175869e-46
5.6860170182035e-47
6.1008897188102e-46
3.4673120408305e-46
3.527641013867e-45
2.0195140442042e-45
1.9451233824315e-44
1.1222659986543e-44
1.0221694448356e-43
5.9463837111431e-44
5.1172962992592e-43
3.0028236200562e-43
2.4398581474091e-42
1.4447122121724e-42
1.1075773204241e-41
6.6203620523355e-42
4.7858593941718e-41
2.8888133194169e-41
1.9680173116636e-40
1.2000512972352e-40
7.7003080924866e-40
4.745136732727e-40
2.8664757158809e-39
1.785730044341e-39
1.0151395018369e-38
6.3955178504877e-39
3.4201397748297e-38
2.1798635759154e-38
1.0963149628229e-37
7.071397660147e-38
3.3439996487091e-37
2.1835501997087e-37
9.7082816614172e-37
6.4194688459253e-37
2.6836062279517e-36
1.7974363896077e-36
7.0666178544085e-36
4.7953719402606e-36
1.7738278514507e-35
1.2197453904403e-35
4.2481098858022e-35
2.9603186494721e-35
9.7170383676391e-35
6.8621920250553e-35
2.1255820708396e-34
1.5211074996689e-34
4.4527387642603e-34
3.2285497456903e-34
8.9446234214019e-34
6.5703822387447e-34
1.7248254439699e-33
1.2835639027221e-33
3.194570531136e-33
2.4088904919012e-33
5.681813103888e-33
4.3435730283092e-33
9.6949632146344e-33
7.5204382284995e-33
1.5843450880712e-32
1.2485949608335e-32
2.4739574390483e-32
1.9839025555379e-32
3.6805063733048e-32
3.0090398213999e-32
5.1961795549673e-32
4.3421711286616e-32
6.9147395065261e-32
5.9321711220458e-32
8.543325896984e-32
7.5968255947366e-32
9.5589501681733e-32
8.932642238711e-32
9.7790926583841e-32
9.5072715163334e-32
9.7849679419012e-32
9.5583461494e-32
9.5531518130217e-32
9.4304055817515e-32
8.9651870185099e-32
9.0298484975353e-32
7.8976106195171e-32
8.2130257906803e-32
6.4244044342995e-32
6.9707789000102e-32
4.7399349878987e-32
5.4273377393768e-32
3.1115103951712e-32
3.8088842293141e-32
1.7805809032336e-32
2.3649046880025e-32
8.725091550458e-33
1.2757648465895e-32
3.6366446006287e-33
5.9069933367878e-33
1.309773173931e-33
2.3535180400888e-33
4.2465186179888e-34
8.266551489743e-34
1.3040539767958e-34
2.6674693161973e-34
3.941936335466e-35
8.2468005345211e-35
1.1939273110705e-35
2.5135758861647e-35
3.6360260492174e-36
7.6530232825823e-36
1.1117286798701e-36
2.3359893602787e-36
3.4075629772209e-37
7.1486705739586e-37
1.0467607069385e-37
2.1926143827918e-37
3.2241498442033e-38
6.741611511319e-38
9.961891560846e-39
2.0788309467307e-38
3.0874335792211e-39
6.4301574152826e-39
9.5910806506188e-40
1.994510516448e-39
2.9826426937725e-40
6.1983755433603e-40
9.2709113011144e-41
1.927399905578e-40
2.8757455511627e-41
5.9876815353118e-41
8.8896819929144e-42
1.8556852955094e-41
2.7360352095306e-42
5.7298154031669e-42
8.371501018215e-43
1.7617980986788e-42
2.5599251758006e-43
5.3730593490744e-43
7.4985876081902e-44
1.6642409275245e-43
2.8329970874965e-44
4.3306623193172e-44
2.5511797574179e-44
0
0
0
0
0
0
0
0
0
0
2.7633352734322e-76
1.3592956039242e-76
6.4749717159545e-74
3.1862527495237e-74
7.327166476656e-72
3.6095971283559e-72
5.3264194706532e-70
2.6292128400258e-70
2.8065497314054e-68
1.3892553826985e-68
1.1471714694596e-66
5.6984994985253e-67
3.8004094243801e-65
1.8955706168323e-65
1.052718344118e-63
5.2748523908465e-64
2.4948700805972e-62
1.2563671630594e-62
5.1463995934682e-61
2.6055890970485e-61
9.364723515815e-60
4.7685039602721e-60
1.5194304659279e-58
7.7838565878587e-59
2.2171896495549e-57
1.1430905708642e-57
2.9303719885065e-56
1.5208729015027e-56
3.5295829891794e-55
1.8446052494149e-55
3.8951904593158e-54
2.0503544902433e-54
3.9565600997703e-53
2.098149169039e-53
3.7148970841489e-52
1.9849077407825e-52
3.239884965343e-51
1.7440350863689e-51
2.6415831444642e-50
1.4318967790193e-50
2.031103090412e-49
1.1076403570576e-49
1.4882852624142e-48
8.1557494789487e-49
1.0497496622756e-47
5.7751012383897e-48
7.1756284565781e-47
3.9619430397729e-47
4.7636830761165e-46
2.6411519872407e-46
3.0668965165838e-45
1.7093021344883e-45
1.9088272900877e-44
1.07074899717e-44
1.1446186264658e-43
6.4692689912784e-44
6.5916869936354e-43
3.7569412178232e-43
3.6351054960912e-42
2.090642815022e-42
1.9146734717697e-41
1.1117458560815e-41
9.6105885035978e-41
5.6363536119765e-41
4.5885015942772e-40
2.719119755837e-40
2.0807430667773e-39
1.2463733097714e-39
8.9518637859086e-39
5.4221959935331e-39
3.650986402955e-38
2.236993105197e-38
1.4107977831854e-37
8.7473530444768e-38
5.1630158921386e-37
3.2407438835751e-37
1.7889360877456e-36
1.1372270317414e-36
5.8671346443251e-36
3.7790576424306e-36
1.8208948701722e-35
1.1889282892073e-35
5.3462382291493e-35
3.5404267359756e-35
1.4845023071396e-34
9.976112598204e-35
3.8971363687021e-34
2.6591559801973e-34
9.6701341496653e-34
6.7033059506875e-34
2.2678288480107e-33
1.5978656587771e-33
5.028134848972e-33
3.6021823786553e-33
1.0549233931563e-32
7.6852056987801e-33
2.098226831442e-32
1.5539714056069e-32
3.9684171076129e-32
2.9855576758673e-32
7.1675952388109e-32
5.4705073856585e-32
1.2427242140481e-31
9.6057035644372e-32
2.0792590227264e-31
1.6247774349866e-31
3.3711260476659e-31
2.6596029705972e-31
5.3060893564005e-31
4.2248935358805e-31
8.0985643344328e-31
6.5141706756215e-31
1.1936872410723e-30
9.7220810892398e-31
1.6880806218486e-30
1.3971732244506e-30
2.2694136296098e-30
1.919147930466e-30
2.8553084248198e-30
2.4908856820259e-30
3.2751783187268e-30
2.9926140154127e-30
3.4041575323476e-30
3.2566564171551e-30
3.4101717644934e-30
3.2981397634294e-30
3.354213942102e-30
3.2682608835411e-30
3.1809810627916e-30
3.1557720030181e-30
2.8421978915972e-30
2.9056515348026e-30
2.35242375428e-30
2.5047309348805e-30
1.7717722335689e-30
1.986746890095e-30
1.1923066015156e-30
1.4255775490573e-30
7.0304678159593e-31
9.0895151707022e-31
3.5692380396003e-31
5.0605605334254e-31
1.5474279936891e-31
2.4292901875441e-31
5.7956569936384e-32
1.0056270048778e-31
1.9432288294391e-32
3.6619519959292e-32
6.1208717493118e-33
1.2177691527395e-32
1.8852309941429e-33
3.8535784433359e-33
5.798624924168e-34
1.1962768262362e-33
1.792029669234e-34
3.7007327262164e-34
5.5630856069192e-35
1.1470971320121e-34
1.7328496587009e-35
3.5662235330866e-35
5.4148000381655e-36
1.1120977501803e-35
1.6980577095882e-36
3.4795537588389e-36
5.3456847130569e-37
1.0927413193179e-36
1.6889065586562e-37
3.4446893866837e-37
5.3493647318201e-38
1.0893670222147e-37
1.6957961970333e-38
3.4518612237003e-38
5.3700373738954e-39
1.0940711581231e-38
1.6955091883148e-39
3.4620866101631e-39
5.3292238125291e-40
1.0919002506318e-39
1.6658612438417e-40
3.4272840386595e-40
5.1710638791295e-41
1.0701024993805e-40
1.6028547757507e-41
3.3101074439284e-41
4.750950471221e-42
1.0397072088122e-41
1.8249571822209e-42
2.7246951071179e-42
1.6451380972458e-42
0
0
0
0
0
0
0
0
8.1291445965513e-87
4.0259306313191e-87
1.1044160561533e-74
5.364845824015e-75
2.2668258722123e-72
1.1031732690504e-72
2.299910068745e-70
1.1216599129621e-70
1.5328125481162e-68
7.4946427136669e-69
7.5419286069525e-67
3.6987549568685e-67
2.9215936274611e-65
1.4378124259946e-65
9.2820758820191e-64
4.5858783700077e-64
2.4891969169592e-62
1.2350967732751e-62
5.7547508986623e-61
2.8687437966496e-61
1.1652379674437e-59
5.8378723420301e-60
2.0924447548457e-58
1.0539398690043e-58
3.3654926120971e-57
1.7048151344625e-57
4.8870899844567e-56
2.4905104328701e-56
6.4493258234463e-55
3.3075144701213e-55
7.778376837203e-54
4.0156658348679e-54
8.6154529782563e-53
4.4786876093167e-53
8.8005707147294e-52
4.6079253807745e-52
8.3216409093094e-51
4.3897436586732e-51
7.308192686817e-50
3.8847272797849e-50
5.9823062692688e-49
3.2041580320606e-49
4.5901251816652e-48
2.4757102627305e-48
3.3333330849711e-47
1.8079861167162e-47
2.3238481283468e-46
1.2651828372287e-46
1.5805702093552e-45
8.623679602637e-46
1.0625323408097e-44
5.8070450212467e-45
7.1007073201018e-44
3.8909067369789e-44
4.7071711865214e-43
2.5906548713963e-43
3.0711342345441e-42
1.700804554269e-42
1.9516601324071e-41
1.0892772516152e-41
1.1957218333381e-40
6.7337224088189e-41
7.0025208408483e-40
3.9825012047451e-40
3.8947002811171e-39
2.2384784054032e-39
2.0479956724538e-38
1.1902399944008e-38
1.0151377432979e-37
5.9686677891155e-38
4.7342753195002e-37
2.8174651814286e-37
2.0751276543605e-36
1.2505552010371e-36
8.5438322532331e-36
5.2163394720853e-36
3.3034303787936e-35
2.0442941087707e-35
1.1993241162891e-34
7.526675588682e-35
4.0883027393734e-34
2.603386192925e-34
1.3084498889153e-33
8.4594419856395e-34
3.9312658797429e-33
2.582190239677e-33
1.1086393160372e-32
7.403293422237e-33
2.9335966802829e-32
1.9932122828717e-32