/*--------------------------------*- C++ -*----------------------------------*\
  =========                 |
  \\      /  F ield         | OpenFOAM: The Open Source CFD Toolbox
   \\    /   O peration     | Website:  https://openfoam.org
    \\  /    A nd           | Version:  7
     \\/     M anipulation  |
\*---------------------------------------------------------------------------*/
FoamFile
{
    version     2.0;
    format      ascii;
    class       volScalarField;
    location    "0.02";
    object      T;
}
// * * * * * * * * * * * * * * * * * * * * * * * * * * * * * * * * * * * * * //

dimensions      [0 0 0 1 0 0 0];

internalField   nonuniform List<scalar> 
12225
(
1.00689
1.0041
1.00171
1.00089
1.00043
1.00012
0.999963
0.999896
0.999862
0.999834
0.999801
0.999729
0.999551
0.999097
0.997953
0.995156
0.987992
0.970231
0.995136
0.994812
0.996745
0.998334
0.999127
0.999464
0.999644
0.999762
0.999835
0.99987
0.999871
0.999823
0.999662
0.999232
0.998134
0.995472
0.988912
0.973353
0.999619
1.00005
1.00023
1.00028
1.0002
1.00008
0.999991
0.999951
0.99993
0.999908
0.999874
0.999806
0.999638
0.999222
0.998195
0.995756
0.990024
0.977547
1.00032
1.00017
0.999777
0.999749
0.999819
0.999835
0.999837
0.999849
0.999861
0.999862
0.999846
0.999793
0.999644
0.999267
0.998344
0.996199
0.991414
0.981738
1.00014
0.999947
0.999658
0.999701
0.999818
0.999857
0.999862
0.99987
0.999878
0.999878
0.999862
0.999811
0.999674
0.999333
0.998521
0.996696
0.992827
0.985497
1.00002
0.999951
0.999769
0.999773
0.999847
0.999872
0.999872
0.999876
0.999882
0.999881
0.999866
0.999819
0.999696
0.999398
0.998705
0.9972
0.994162
0.988702
0.999995
1
0.999864
0.999822
0.999858
0.999877
0.999878
0.999882
0.999886
0.999885
0.999872
0.99983
0.999724
0.999469
0.998895
0.997691
0.995362
0.991352
0.999995
1.00002
0.999917
0.999858
0.999872
0.999888
0.999889
0.999891
0.999894
0.999892
0.999881
0.999844
0.999753
0.999542
0.99908
0.998142
0.996397
0.993491
0.999995
1.00002
0.999951
0.999894
0.999893
0.999902
0.999902
0.999902
0.999903
0.999901
0.999891
0.999859
0.999784
0.999613
0.999252
0.998541
0.99726
0.995184
0.999995
1.00002
0.999976
0.999926
0.999916
0.999918
0.999916
0.999914
0.999914
0.999912
0.999902
0.999875
0.999814
0.999681
0.999405
0.99888
0.997961
0.996499
0.999996
1.00002
0.999992
0.999953
0.999938
0.999934
0.999931
0.999927
0.999926
0.999922
0.999913
0.999892
0.999844
0.999742
0.999537
0.999159
0.998513
0.997503
0.999997
1.00001
1
0.999971
0.999954
0.999949
0.999944
0.99994
0.999937
0.999932
0.999925
0.999907
0.99987
0.999792
0.999639
0.999364
0.998903
0.998191
0.999997
1.00001
1.00001
0.999984
0.999968
0.999962
0.999957
0.999952
0.999947
0.999943
0.999937
0.999923
0.999892
0.999835
0.999725
0.999528
0.999206
0.998714
0.999997
1.00001
1.00001
0.999993
0.999981
0.999974
0.999968
0.999964
0.999959
0.999955
0.999949
0.999939
0.999916
0.999876
0.999802
0.999672
0.999462
0.999147
0.999998
1.00001
1.00001
1
0.999991
0.999985
0.999981
0.999977
0.999972
0.999967
0.999962
0.999954
0.99994
0.999914
0.999867
0.999788
0.999663
0.999477
0.999998
1.00001
1.00001
1
0.999998
0.999994
0.999991
0.999988
0.999983
0.999979
0.999974
0.999969
0.999961
0.999945
0.999917
0.999873
0.999806
0.999707
0.999998
1.00001
1.00001
1.00001
1
0.999999
0.999998
0.999996
0.999992
0.999989
0.999984
0.99998
0.999975
0.999968
0.999954
0.999931
0.999899
0.999852
0.999999
1.00001
1.00001
1.00001
1
1
1
0.999998
0.999995
0.999993
0.999992
0.99999
0.999986
0.99998
0.999974
0.999966
0.999952
0.999932
1
1.00001
1.00001
1.00001
1
1
1
0.999999
0.999998
0.999996
0.999994
0.999992
0.999989
0.999986
0.999984
0.99998
0.999974
0.999966
0.999999
1.00001
1.00001
1.00001
1.00001
1
0.999998
0.999996
0.999993
0.999991
0.999989
0.999987
0.999985
0.999982
0.99998
0.999977
0.999974
0.99997
0.999997
1.00001
1.00001
1.00001
1
0.999998
0.999993
0.999988
0.999985
0.999982
0.999979
0.999976
0.999973
0.999972
0.99997
0.999968
0.999966
0.999964
0.999997
1.00001
1.00002
1.00001
0.999995
0.999988
0.999982
0.999975
0.999969
0.999965
0.999964
0.999963
0.99996
0.999959
0.999958
0.999957
0.999956
0.999954
0.999996
1.00003
1.00003
0.999996
0.999972
0.999966
0.999961
0.999956
0.999952
0.999949
0.999948
0.999947
0.999946
0.999945
0.999945
0.999944
0.999944
0.999944
0.999989
1.00005
1.00004
0.999983
0.999948
0.999938
0.999932
0.999929
0.999929
0.999931
0.999932
0.999933
0.999932
0.999933
0.999934
0.999934
0.999935
0.999935
0.99999
1.00004
0.999992
0.999937
0.999931
0.999929
0.999917
0.999909
0.999908
0.99991
0.999912
0.999915
0.999917
0.999918
0.999919
0.999921
0.999923
0.999925
1.00013
1.00009
0.999825
0.999756
0.999837
0.999896
0.999909
0.999912
0.999916
0.999918
0.99992
0.999921
0.999922
0.999922
0.999923
0.999924
0.999925
0.999925
1.0005
1.00053
0.999952
0.999665
0.999667
0.999718
0.999754
0.999789
0.99982
0.999844
0.999861
0.999875
0.999885
0.999893
0.9999
0.999905
0.999909
0.999914
1.00004
1.0008
1.00096
1.0008
1.00056
1.00034
1.00018
1.00009
1.00003
0.999996
0.99997
0.999954
0.999943
0.999935
0.99993
0.999925
0.999921
0.999921
0.994604
0.993791
0.995838
0.997661
0.998662
0.999144
0.999416
0.999594
0.99971
0.999782
0.999829
0.999863
0.999887
0.999905
0.999918
0.999928
0.999933
0.99993
1.00635
1.00419
1.00178
1.00096
1.00054
1.00023
1.00005
0.999977
0.999939
0.999915
0.9999
0.999891
0.999888
0.999886
0.999885
0.999886
0.999888
0.999899
0.164057
0.163987
0.163833
0.163602
0.163297
0.162917
0.162464
0.161938
0.161342
0.160677
0.159946
0.159151
0.158294
0.157378
0.156405
0.155379
0.154303
0.15318
0.152015
0.15081
0.14957
0.148298
0.146998
0.145674
0.14433
0.14297
0.141597
0.140213
0.138823
0.137429
0.136037
0.134654
0.133297
0.131989
0.130689
0.129366
0.128055
0.12675
0.125455
0.124173
0.122902
0.121655
0.12044
0.119238
0.118058
0.116908
0.115777
0.114667
0.113578
0.112509
0.11146
0.11043
0.109419
0.108427
0.107452
0.106494
0.105554
0.104629
0.103721
0.102827
0.101948
0.101083
0.10023
0.0993906
0.0985624
0.0977451
0.0969379
0.09614
0.0953505
0.0945686
0.0937934
0.093024
0.0922594
0.0914987
0.090741
0.0899853
0.0892306
0.0884759
0.0877203
0.0869629
0.0862026
0.0854385
0.0846695
0.0838949
0.0831137
0.0823249
0.0815276
0.080721
0.0799043
0.0790766
0.0782371
0.077385
0.0765196
0.0756401
0.0747459
0.0738362
0.0729102
0.0719673
0.0710074
0.0700302
0.0690349
0.0680212
0.0669886
0.0659369
0.0648658
0.0637752
0.0626648
0.0615347
0.0603848
0.0592153
0.0580263
0.056818
0.0555908
0.054345
0.0530812
0.0517999
0.0505019
0.049188
0.047859
0.046516
0.0451601
0.0437925
0.0424145
0.0410277
0.0396337
0.0382341
0.0368308
0.0354257
0.034021
0.0326187
0.0312212
0.0298307
0.0284497
0.0270807
0.0257262
0.0243887
0.023071
0.0217755
0.0205048
0.0192616
0.0180483
0.0168673
0.015721
0.0146113
0.0135405
0.0125104
0.0115225
0.0105783
0.00967906
0.00882565
0.00801877
0.0072588
0.00654588
0.00587983
0.00526021
0.00468631
0.00415714
0.00367149
0.00322791
0.00282473
0.00246013
0.00213213
0.00183859
0.00157728
0.00134601
0.0011425
0.000964466
0.000809627
0.000675773
0.000560769
0.000462574
0.000379262
0.000309029
0.000250205
0.000201261
0.000160806
0.000127603
0.000100542
7.87511e-05
6.1437e-05
0.166179
0.1661
0.165944
0.165709
0.165398
0.165011
0.164549
0.164014
0.163407
0.162729
0.161983
0.161173
0.1603
0.159368
0.15838
0.15734
0.15625
0.155115
0.153937
0.152721
0.151471
0.150191
0.148884
0.147555
0.146208
0.144848
0.143478
0.142104
0.140728
0.139354
0.137984
0.136616
0.13525
0.133857
0.132453
0.131089
0.129752
0.128441
0.127154
0.125887
0.124644
0.123419
0.122205
0.121016
0.119852
0.118704
0.117575
0.116467
0.115379
0.114311
0.113263
0.112235
0.111225
0.110234
0.10926
0.108305
0.107366
0.106443
0.105536
0.104644
0.103767
0.102904
0.102054
0.101216
0.10039
0.0995757
0.0987712
0.0979761
0.0971896
0.0964107
0.0956387
0.0948726
0.0941115
0.0933544
0.0926004
0.0918485
0.0910976
0.0903469
0.0895954
0.088842
0.0880858
0.0873257
0.0865609
0.0857903
0.085013
0.0842281
0.0834345
0.0826316
0.0818182
0.0809937
0.0801572
0.0793077
0.0784446
0.0775671
0.0766745
0.0757661
0.0748414
0.0738997
0.0729402
0.0719622
0.0709654
0.0699495
0.068914
0.0678586
0.066783
0.065687
0.0645705
0.0634332
0.0622752
0.0610965
0.0598972
0.0586775
0.0574377
0.0561781
0.0548992
0.0536016
0.0522858
0.0509528
0.0496032
0.0482382
0.0468588
0.0454662
0.0440617
0.0426469
0.0412232
0.0397925
0.0383566
0.0369174
0.035477
0.0340377
0.0326017
0.0311715
0.0297494
0.0283381
0.0269403
0.0255585
0.0241956
0.0228541
0.0215369
0.0202467
0.018986
0.0177575
0.0165637
0.0154067
0.0142889
0.0132123
0.0121787
0.0111897
0.0102466
0.00935064
0.00850251
0.00770279
0.00695173
0.00624926
0.00559505
0.00498844
0.00442852
0.0039141
0.00344375
0.00301582
0.00262842
0.0022796
0.00196715
0.0016888
0.00144224
0.00122507
0.00103488
0.000869329
0.000726083
0.000602902
0.000497638
0.000408254
0.000332845
0.000269638
0.000217009
0.000173479
0.000137727
0.000108569
8.5046e-05
6.63049e-05
0.170467
0.170367
0.170193
0.169938
0.169605
0.169192
0.168703
0.168139
0.167502
0.166794
0.166019
0.16518
0.164278
0.163318
0.162302
0.161234
0.160117
0.158956
0.157753
0.156513
0.155241
0.153939
0.152611
0.151263
0.149898
0.148519
0.147131
0.145736
0.144337
0.142937
0.141539
0.140147
0.138763
0.137388
0.136023
0.134674
0.133341
0.132028
0.130736
0.129466
0.12822
0.126996
0.125794
0.124612
0.123449
0.122305
0.12118
0.120076
0.118991
0.117926
0.116881
0.115855
0.114848
0.11386
0.112889
0.111936
0.111
0.11008
0.109177
0.108288
0.107415
0.106555
0.105709
0.104876
0.104055
0.103245
0.102446
0.101657
0.100876
0.100103
0.0993379
0.0985785
0.0978245
0.0970747
0.0963282
0.0955841
0.0948413
0.0940988
0.0933555
0.0926106
0.0918628
0.0911113
0.090355
0.0895929
0.088824
0.0880473
0.0872618
0.0864666
0.0856607
0.0848432
0.0840133
0.0831699
0.0823123
0.0814396
0.080551
0.0796457
0.078723
0.0777822
0.0768226
0.0758437
0.0748449
0.0738255
0.0727853
0.0717237
0.0706403
0.0695347
0.0684068
0.0672564
0.0660832
0.0648872
0.0636685
0.062427
0.0611631
0.0598769
0.0585689
0.0572394
0.0558891
0.0545187
0.0531289
0.0517207
0.050295
0.0488532
0.0473963
0.0459259
0.0444436
0.0429511
0.0414503
0.0399431
0.0384317
0.0369184
0.0354055
0.0338956
0.0323913
0.0308954
0.0294105
0.0279397
0.0264857
0.0250518
0.0236407
0.0222555
0.0208992
0.0195747
0.0182847
0.0170319
0.0158189
0.0146481
0.0135216
0.0124414
0.0114093
0.0104265
0.00949437
0.0086136
0.00778472
0.0070079
0.00628299
0.00560949
0.00498664
0.0044133
0.0038881
0.0034094
0.00297529
0.00258369
0.00223233
0.0019188
0.00164061
0.00139518
0.00117992
0.000992253
0.000829635
0.000689598
0.000569766
0.000467878
0.00038181
0.000309581
0.000249369
0.000199512
0.000158515
0.000125043
9.79817e-05
7.63334e-05
0.176902
0.176779
0.176578
0.176297
0.175932
0.175484
0.174958
0.174354
0.173677
0.172929
0.172113
0.171232
0.170289
0.169289
0.168233
0.167126
0.165972
0.164774
0.163536
0.162263
0.160959
0.159627
0.158271
0.156896
0.155506
0.154104
0.152694
0.15128
0.149864
0.14845
0.147042
0.145642
0.144253
0.142875
0.141511
0.140163
0.138833
0.137522
0.13623
0.134959
0.133709
0.132481
0.131274
0.130089
0.128924
0.127781
0.126657
0.125554
0.124471
0.123408
0.122365
0.12134
0.120335
0.119349
0.11838
0.117429
0.116496
0.115579
0.114679
0.113794
0.112924
0.112069
0.111228
0.1104
0.109584
0.108781
0.107988
0.107206
0.106433
0.105668
0.104911
0.104161
0.103416
0.102676
0.10194
0.101207
0.100475
0.0997437
0.099012
0.0982788
0.0975429
0.0968034
0.0960591
0.0953089
0.0945518
0.0937868
0.0930126
0.0922284
0.0914331
0.0906257
0.0898052
0.0889705
0.0881208
0.087255
0.0863723
0.0854718
0.0845526
0.0836139
0.0826549
0.081675
0.0806733
0.0796493
0.0786024
0.0775319
0.0764373
0.0753182
0.0741741
0.0730046
0.0718096
0.0705887
0.0693418
0.0680689
0.0667699
0.0654451
0.0640947
0.0627189
0.0613183
0.0598933
0.0584447
0.0569732
0.0554799
0.0539657
0.052432
0.05088
0.0493114
0.0477278
0.0461311
0.0445235
0.042907
0.0412841
0.0396573
0.0380292
0.0364026
0.0347805
0.033166
0.0315622
0.0299724
0.0283999
0.0268482
0.0253206
0.0238206
0.0223515
0.0209167
0.0195193
0.0181625
0.0168491
0.015582
0.0143636
0.0131961
0.0120815
0.0110213
0.0100169
0.00906922
0.00817871
0.00734559
0.00656956
0.00585014
0.00518631
0.00457676
0.00401987
0.00351369
0.00305605
0.00264452
0.00227652
0.00194932
0.00166007
0.00140589
0.00118387
0.000991142
0.000824883
0.000682372
0.000561006
0.000458324
0.000372025
0.000299981
0.000240245
0.00019106
0.000150848
0.000118271
9.21155e-05
0.185515
0.185364
0.185135
0.184822
0.18442
0.183932
0.183361
0.182711
0.181984
0.181186
0.180319
0.179386
0.178392
0.177341
0.176235
0.175079
0.173877
0.172633
0.171351
0.170036
0.168691
0.167321
0.16593
0.164523
0.163102
0.161672
0.160237
0.1588
0.157365
0.155934
0.154512
0.1531
0.151701
0.150315
0.148946
0.147593
0.146259
0.144945
0.143651
0.142378
0.141126
0.139895
0.138686
0.137499
0.136332
0.135187
0.134063
0.132959
0.131876
0.130812
0.129769
0.128745
0.12774
0.126754
0.125786
0.124837
0.123905
0.12299
0.122093
0.121211
0.120345
0.119494
0.118657
0.117835
0.117025
0.116228
0.115443
0.114668
0.113904
0.113149
0.112401
0.111662
0.110928
0.1102
0.109476
0.108755
0.108037
0.107319
0.106601
0.105882
0.105161
0.104436
0.103706
0.10297
0.102228
0.101477
0.100717
0.0999459
0.0991636
0.0983685
0.0975595
0.0967355
0.0958954
0.0950381
0.0941625
0.0932678
0.0923527
0.0914165
0.0904581
0.0894767
0.0884714
0.0874414
0.0863859
0.085304
0.0841951
0.0830586
0.0818937
0.0807
0.0794769
0.0782241
0.0769411
0.0756278
0.074284
0.0729097
0.0715047
0.0700693
0.0686038
0.0671086
0.065584
0.0640309
0.06245
0.0608422
0.0592086
0.0575507
0.0558698
0.0541676
0.052446
0.0507072
0.0489533
0.0471867
0.0454103
0.0436268
0.0418392
0.0400508
0.0382649
0.0364852
0.0347152
0.0329588
0.0312199
0.0295024
0.0278105
0.026148
0.024519
0.0229274
0.0213771
0.0198716
0.0184145
0.017009
0.0156581
0.0143643
0.01313
0.0119572
0.0108472
0.0098012
0.0088198
0.00790312
0.00705092
0.00626244
0.0055365
0.00487154
0.0042656
0.0037164
0.00322136
0.00277763
0.0023822
0.00203186
0.00172335
0.00145332
0.00121844
0.00101544
0.000841117
0.000692397
0.000566359
0.00046026
0.000371551
0.000297889
0.000237153
0.000187429
0.000147075
0.000114581
0.196354
0.196174
0.195913
0.195565
0.195123
0.194589
0.193968
0.193265
0.192483
0.191627
0.1907
0.189708
0.188655
0.187544
0.186379
0.185166
0.183908
0.182611
0.181277
0.179912
0.178521
0.177107
0.175675
0.174228
0.172772
0.17131
0.169846
0.168383
0.166925
0.165474
0.164033
0.162606
0.161192
0.159794
0.158414
0.157053
0.155711
0.154389
0.153089
0.15181
0.150553
0.149317
0.148104
0.146912
0.145742
0.144592
0.143464
0.142357
0.141271
0.140204
0.139158
0.138132
0.137125
0.136138
0.135169
0.134219
0.133287
0.132373
0.131476
0.130596
0.129732
0.128884
0.128052
0.127234
0.12643
0.125639
0.12486
0.124094
0.123338
0.122592
0.121855
0.121126
0.120404
0.119689
0.118978
0.118271
0.117566
0.116863
0.116161
0.115457
0.114752
0.114043
0.113329
0.11261
0.111883
0.111148
0.110404
0.109648
0.10888
0.108099
0.107303
0.106491
0.105662
0.104814
0.103947
0.103058
0.102148
0.101214
0.100256
0.0992731
0.0982633
0.097226
0.0961602
0.0950649
0.093939
0.0927818
0.0915923
0.0903699
0.0891136
0.087823
0.0864973
0.0851361
0.083739
0.0823056
0.0808357
0.0793293
0.0777863
0.076207
0.0745916
0.0729404
0.0712543
0.0695338
0.06778
0.0659941
0.0641773
0.0623314
0.0604582
0.0585596
0.0566381
0.0546962
0.0527366
0.0507625
0.0487769
0.0467836
0.0447862
0.0427886
0.0407951
0.03881
0.0368378
0.0348832
0.032951
0.0310458
0.0291726
0.0273361
0.0255412
0.0237923
0.0220939
0.0204503
0.0188652
0.0173424
0.0158849
0.0144956
0.0131767
0.0119301
0.0107569
0.00965782
0.00863311
0.00768233
0.00680454
0.00599831
0.0052617
0.00459236
0.00398751
0.00344404
0.00295858
0.00252751
0.00214705
0.00181335
0.0015225
0.00127063
0.00105392
0.000868711
0.000711475
0.000578895
0.00046787
0.000375542
0.000299308
0.00023681
0.000186011
0.000145014
0.209488
0.20928
0.208986
0.2086
0.208113
0.20753
0.206855
0.206093
0.205251
0.204331
0.20334
0.202282
0.201162
0.199985
0.198756
0.197479
0.196159
0.194801
0.193409
0.191989
0.190545
0.189081
0.187603
0.186113
0.184617
0.183119
0.181621
0.180127
0.178641
0.177165
0.175702
0.174253
0.172821
0.171406
0.170011
0.168635
0.167281
0.165947
0.164636
0.163347
0.16208
0.160835
0.159613
0.158412
0.157234
0.156077
0.154941
0.153827
0.152734
0.151661
0.150609
0.149578
0.148566
0.147574
0.146601
0.145648
0.144713
0.143797
0.142898
0.142018
0.141154
0.140307
0.139476
0.138661
0.137861
0.137075
0.136302
0.135542
0.134793
0.134056
0.133328
0.132609
0.131899
0.131195
0.130497
0.129803
0.129113
0.128424
0.127737
0.127049
0.12636
0.125667
0.12497
0.124267
0.123557
0.122838
0.12211
0.12137
0.120617
0.11985
0.119068
0.118268
0.11745
0.116612
0.115753
0.114872
0.113966
0.113035
0.112077
0.111091
0.110076
0.10903
0.107953
0.106842
0.105697
0.104517
0.1033
0.102045
0.100751
0.0994182
0.0980444
0.0966293
0.095172
0.0936721
0.0921289
0.090542
0.0889112
0.0872364
0.0855175
0.0837547
0.0819483
0.0800989
0.0782072
0.0762742
0.074301
0.0722892
0.0702404
0.0681567
0.0660403
0.0638939
0.0617204
0.0595228
0.0573048
0.0550701
0.0528228
0.0505673
0.0483084
0.046051
0.0438003
0.0415618
0.0393409
0.0371435
0.0349753
0.0328423
0.0307502
0.0287048
0.0267117
0.0247763
0.0229038
0.0210988
0.0193657
0.0177083
0.0161299
0.0146334
0.0132207
0.0118934
0.0106522
0.00949721
0.00842792
0.0074431
0.00654093
0.00571901
0.0049744
0.00430372
0.0037032
0.00316872
0.00269595
0.00228039
0.00191744
0.0016025
0.00133102
0.00109856
0.000900875
0.000733906
0.000593864
0.00047723
0.000380792
0.000301625
0.000237185
0.000185084
0.225012
0.224776
0.224447
0.224019
0.223485
0.222849
0.222117
0.221294
0.220386
0.219399
0.218338
0.217209
0.216018
0.21477
0.21347
0.212123
0.210736
0.209312
0.207857
0.206376
0.204875
0.203356
0.201826
0.200289
0.198748
0.197207
0.195671
0.194141
0.192622
0.191116
0.189624
0.188149
0.186692
0.185255
0.183839
0.182443
0.18107
0.179719
0.178391
0.177086
0.175804
0.174545
0.173308
0.172094
0.170903
0.169733
0.168586
0.16746
0.166355
0.165272
0.16421
0.163168
0.162147
0.161147
0.160166
0.159205
0.158264
0.157342
0.156439
0.155554
0.154687
0.153838
0.153006
0.152191
0.151391
0.150607
0.149837
0.14908
0.148337
0.147605
0.146885
0.146174
0.145472
0.144778
0.14409
0.143408
0.14273
0.142055
0.141381
0.140707
0.140033
0.139355
0.138673
0.137986
0.137291
0.136588
0.135874
0.135149
0.134411
0.133658
0.132888
0.1321
0.131293
0.130464
0.129612
0.128737
0.127835
0.126905
0.125947
0.124958
0.123936
0.122881
0.12179
0.120663
0.119497
0.118291
0.117044
0.115754
0.11442
0.113041
0.111615
0.110141
0.108619
0.107047
0.105424
0.103749
0.102023
0.100244
0.0984115
0.0965262
0.0945877
0.0925962
0.0905522
0.0884563
0.0863095
0.084113
0.0818684
0.0795774
0.0772424
0.0748659
0.0724508
0.0700004
0.0675183
0.0650087
0.0624759
0.0599249
0.0573608
0.0547892
0.0522161
0.0496478
0.0470908
0.0445517
0.0420377
0.0395556
0.0371128
0.0347163
0.0323731
0.03009
0.0278736
0.0257301
0.0236652
0.0216841
0.0197916
0.0179914
0.016287
0.0146807
0.0131742
0.0117683
0.010463
0.00925753
0.00815023
0.00713879
0.00622015
0.00539068
0.00464619
0.00398204
0.00339325
0.00287458
0.00242064
0.00202594
0.00168505
0.00139263
0.0011435
0.000932731
0.000755669
0.000607982
0.000485695
0.000385172
0.000303239
0.000236886
0.243044
0.242776
0.242409
0.241937
0.241353
0.240661
0.239868
0.23898
0.238003
0.236945
0.235811
0.234607
0.23334
0.232016
0.230641
0.22922
0.22776
0.226265
0.224742
0.223196
0.221631
0.220053
0.218466
0.216875
0.215284
0.213696
0.212115
0.210544
0.208985
0.207442
0.205916
0.204408
0.202921
0.201454
0.20001
0.198589
0.19719
0.195815
0.194464
0.193137
0.191833
0.190553
0.189297
0.188063
0.186852
0.185665
0.184499
0.183356
0.182234
0.181135
0.180057
0.179
0.177965
0.176951
0.175957
0.174984
0.174031
0.173099
0.172186
0.171292
0.170418
0.169562
0.168724
0.167904
0.1671
0.166313
0.165542
0.164785
0.164042
0.163312
0.162594
0.161888
0.161191
0.160502
0.159822
0.159147
0.158478
0.157812
0.157148
0.156485
0.155821
0.155155
0.154486
0.153811
0.153128
0.152438
0.151737
0.151024
0.150297
0.149555
0.148795
0.148017
0.147218
0.146397
0.145551
0.144679
0.143779
0.14285
0.141889
0.140894
0.139865
0.138798
0.137693
0.136547
0.135358
0.134125
0.132846
0.131519
0.130143
0.128715
0.127234
0.125699
0.124108
0.12246
0.120753
0.118986
0.117158
0.115269
0.113317
0.111301
0.109222
0.107079
0.104871
0.102601
0.100267
0.0978709
0.0954141
0.092898
0.0903247
0.0876965
0.0850163
0.0822874
0.0795136
0.0766991
0.0738487
0.0709675
0.0680614
0.0651364
0.0621993
0.0592573
0.0563178
0.0533888
0.0504784
0.047595
0.0447473
0.041944
0.0391935
0.0365046
0.0338854
0.0313438
0.0288875
0.0265232
0.0242574
0.0220954
0.020042
0.018101
0.0162751
0.0145663
0.0129751
0.0115016
0.0101444
0.00890141
0.00776957
0.00674503
0.00582322
0.00499896
0.00426657
0.00361999
0.00305289
0.0025588
0.00213124
0.00176378
0.00145016
0.00118437
0.000960733
0.000773911
0.000618996
0.000491479
0.000387402
0.000302985
0.263716
0.263415
0.263007
0.262487
0.261849
0.261098
0.26024
0.259284
0.258235
0.257101
0.25589
0.254607
0.25326
0.251856
0.2504
0.2489
0.247362
0.245792
0.244195
0.242578
0.240945
0.239301
0.237652
0.236001
0.234353
0.232712
0.23108
0.22946
0.227855
0.226268
0.2247
0.223153
0.221627
0.220124
0.218645
0.21719
0.215759
0.214353
0.212971
0.211614
0.210282
0.208974
0.20769
0.206429
0.205193
0.20398
0.202789
0.201622
0.200477
0.199355
0.198255
0.197177
0.19612
0.195086
0.194073
0.193081
0.192111
0.191161
0.190233
0.189324
0.188435
0.187566
0.186716
0.185885
0.185072
0.184276
0.183497
0.182733
0.181985
0.18125
0.180529
0.17982
0.179122
0.178433
0.177753
0.17708
0.176413
0.175751
0.175091
0.174433
0.173775
0.173115
0.172452
0.171784
0.171109
0.170425
0.169732
0.169026
0.168306
0.16757
0.166817
0.166044
0.16525
0.164432
0.163588
0.162717
0.161816
0.160883
0.159917
0.158915
0.157875
0.156795
0.155673
0.154506
0.153293
0.152031
0.150718
0.149352
0.147931
0.146454
0.144916
0.143318
0.141657
0.13993
0.138137
0.136275
0.134343
0.13234
0.130263
0.128113
0.125888
0.123587
0.121209
0.118756
0.116226
0.11362
0.110939
0.108185
0.105358
0.102461
0.0994972
0.0964691
0.0933804
0.0902357
0.0870397
0.083798
0.0805168
0.0772028
0.0738634
0.0705066
0.0671409
0.0637754
0.0604196
0.0570834
0.0537769
0.0505107
0.0472951
0.0441406
0.0410576
0.038056
0.0351453
0.0323347
0.0296324
0.0270457
0.0245813
0.0222446
0.02004
0.0179705
0.016038
0.0142433
0.0125858
0.0110637
0.00967401
0.00841293
0.00727549
0.006256
0.00534804
0.00454467
0.00383853
0.00322204
0.00268749
0.0022272
0.00183363
0.00149951
0.00121791
0.000982303
0.000786644
0.000625362
0.000493544
0.000386465
0.287184
0.286846
0.286392
0.28582
0.285124
0.284309
0.283383
0.282353
0.281228
0.280014
0.27872
0.277353
0.275921
0.274431
0.27289
0.271305
0.269683
0.268031
0.266355
0.26466
0.262952
0.261237
0.259518
0.257801
0.256089
0.254386
0.252695
0.251019
0.249361
0.247722
0.246104
0.244509
0.242937
0.241389
0.239867
0.23837
0.236898
0.235452
0.234032
0.232637
0.231267
0.229923
0.228604
0.227309
0.226038
0.224791
0.223569
0.222369
0.221193
0.22004
0.21891
0.217802
0.216718
0.215655
0.214615
0.213597
0.212601
0.211627
0.210674
0.209742
0.208831
0.207941
0.207071
0.20622
0.205389
0.204575
0.20378
0.203001
0.202239
0.201491
0.200758
0.200037
0.199329
0.198632
0.197944
0.197264
0.196591
0.195923
0.195259
0.194597
0.193936
0.193274
0.192609
0.19194
0.191264
0.19058
0.189886
0.18918
0.18846
0.187724
0.18697
0.186196
0.1854
0.18458
0.183733
0.182857
0.18195
0.181009
0.180033
0.179019
0.177965
0.176868
0.175725
0.174535
0.173295
0.172002
0.170654
0.169248
0.167781
0.166252
0.164657
0.162995
0.161263
0.159457
0.157577
0.15562
0.153583
0.151465
0.149264
0.146977
0.144604
0.142143
0.139593
0.136952
0.134222
0.1314
0.128489
0.125487
0.122397
0.119221
0.115959
0.112616
0.109195
0.1057
0.102136
0.0985088
0.0948245
0.0910906
0.0873149
0.0835062
0.0796741
0.0758288
0.0719811
0.0681425
0.0643248
0.0605405
0.0568019
0.0531218
0.0495128
0.0459872
0.0425571
0.0392338
0.0360282
0.0329499
0.0300078
0.0272095
0.0245612
0.0220678
0.0197328
0.0175579
0.0155437
0.0136889
0.0119911
0.0104463
0.00904957
0.00779458
0.00667425
0.0056807
0.0048055
0.00403978
0.00337448
0.00280048
0.00230878
0.0018906
0.00153755
0.00124169
0.00099562
0.000792488
0.00062623
0.000490968
0.313618
0.31324
0.312736
0.312106
0.311346
0.310461
0.30946
0.30835
0.307141
0.305841
0.304457
0.302999
0.301474
0.299891
0.298257
0.29658
0.294868
0.293126
0.291362
0.289582
0.287792
0.285996
0.2842
0.282408
0.280624
0.278851
0.277093
0.275353
0.273631
0.271932
0.270255
0.268603
0.266975
0.265374
0.263799
0.26225
0.260729
0.259234
0.257765
0.256324
0.254908
0.253518
0.252154
0.250815
0.249501
0.248212
0.246947
0.245707
0.24449
0.243297
0.242128
0.240982
0.239859
0.238759
0.237682
0.236628
0.235596
0.234587
0.2336
0.232636
0.231692
0.23077
0.22987
0.228989
0.228128
0.227287
0.226464
0.225659
0.224871
0.224099
0.223342
0.222599
0.221869
0.221151
0.220443
0.219744
0.219053
0.218369
0.217689
0.217012
0.216336
0.21566
0.214982
0.214301
0.213613
0.212918
0.212214
0.211497
0.210767
0.210021
0.209257
0.208473
0.207667
0.206835
0.205976
0.205088
0.204168
0.203213
0.202221
0.201189
0.200115
0.198996
0.19783
0.196612
0.195341
0.194014
0.192628
0.19118
0.189666
0.188085
0.186432
0.184706
0.182903
0.181019
0.179053
0.177002
0.174862
0.172631
0.170306
0.167885
0.165366
0.162746
0.160023
0.157197
0.154265
0.151228
0.148083
0.144832
0.141475
0.138012
0.134446
0.130779
0.127014
0.123155
0.119207
0.115175
0.111066
0.106887
0.102646
0.0983539
0.0940201
0.0896562
0.0852741
0.0808871
0.0765086
0.0721532
0.0678354
0.0635704
0.0593733
0.0552592
0.0512428
0.0473386
0.0435599
0.0399196
0.0364292
0.0330987
0.029937
0.0269512
0.0241466
0.0215267
0.0190934
0.0168464
0.0147841
0.0129027
0.0111971
0.00966084
0.00828612
0.00706413
0.00598526
0.0050393
0.00421568
0.00350367
0.00289257
0.00237189
0.00193154
0.0015619
0.00125399
0.000999425
0.00079076
0.000620735
0.343211
0.342787
0.342226
0.34153
0.340698
0.339734
0.338648
0.337449
0.336146
0.334748
0.333265
0.331705
0.330077
0.32839
0.326653
0.324874
0.323061
0.32122
0.319359
0.317484
0.315601
0.313715
0.311832
0.309955
0.308089
0.306237
0.304402
0.302586
0.300793
0.299022
0.297277
0.295557
0.293865
0.292199
0.290561
0.288951
0.287369
0.285815
0.284288
0.282789
0.281316
0.279871
0.278451
0.277058
0.27569
0.274348
0.273031
0.271738
0.27047
0.269226
0.268006
0.26681
0.265638
0.264489
0.263364
0.262262
0.261183
0.260127
0.259094
0.258083
0.257095
0.256128
0.255183
0.254259
0.253356
0.252473
0.251609
0.250763
0.249935
0.249124
0.248329
0.247549
0.246782
0.246029
0.245286
0.244553
0.243829
0.243113
0.242401
0.241694
0.240989
0.240285
0.23958
0.238872
0.238158
0.237438
0.236709
0.235969
0.235215
0.234447
0.23366
0.232854
0.232025
0.231172
0.230291
0.22938
0.228437
0.227459
0.226442
0.225385
0.224284
0.223137
0.22194
0.22069
0.219384
0.218019
0.216591
0.215098
0.213536
0.211901
0.21019
0.2084
0.206527
0.204567
0.202518
0.200374
0.198134
0.195794
0.19335
0.190799
0.188138
0.185364
0.182474
0.179466
0.176338
0.173088
0.169714
0.166216
0.162593
0.158845
0.154974
0.15098
0.146867
0.142637
0.138295
0.133847
0.129298
0.124655
0.119929
0.115128
0.110264
0.105348
0.100395
0.0954185
0.0904342
0.0854584
0.0805082
0.0756013
0.0707556
0.0659891
0.0613199
0.0567654
0.0523427
0.0480675
0.0439549
0.0400181
0.0362689
0.0327171
0.0293707
0.0262354
0.0233148
0.0206102
0.0181209
0.0158438
0.0137741
0.0119052
0.0102285
0.00873463
0.00741263
0.00625092
0.00523729
0.0043592
0.00360407
0.00295946
0.00241332
0.0019541
0.00157093
0.00125366
0.000993193
0.000780628
0.376172
0.375695
0.375068
0.374296
0.373378
0.372322
0.371137
0.369833
0.368421
0.366911
0.365312
0.363634
0.361888
0.360083
0.358229
0.356333
0.354405
0.352451
0.35048
0.348498
0.34651
0.344522
0.34254
0.340567
0.338608
0.336665
0.334741
0.33284
0.330962
0.329109
0.327284
0.325486
0.323716
0.321975
0.320263
0.31858
0.316926
0.315301
0.313704
0.312136
0.310595
0.309081
0.307595
0.306135
0.304701
0.303293
0.30191
0.300553
0.29922
0.297912
0.296629
0.295369
0.294134
0.292922
0.291734
0.29057
0.289429
0.288311
0.287217
0.286145
0.285096
0.284069
0.283063
0.28208
0.281117
0.280174
0.279252
0.278348
0.277463
0.276595
0.275744
0.274908
0.274086
0.273279
0.272483
0.271698
0.270922
0.270155
0.269394
0.268638
0.267886
0.267135
0.266384
0.265631
0.264874
0.264112
0.263341
0.262561
0.261768
0.26096
0.260136
0.259293
0.258428
0.257538
0.256622
0.255676
0.254698
0.253684
0.252633
0.25154
0.250403
0.249218
0.247983
0.246694
0.245346
0.243938
0.242465
0.240924
0.23931
0.23762
0.235851
0.233997
0.232055
0.230021
0.22789
0.225659
0.223324
0.22088
0.218322
0.215648
0.212853
0.209933
0.206884
0.203704
0.200388
0.196934
0.19334
0.189603
0.185722
0.181696
0.177524
0.173208
0.16875
0.16415
0.159413
0.154544
0.149549
0.144434
0.139208
0.133881
0.128465
0.122973
0.117419
0.111818
0.106189
0.100549
0.0949184
0.0893168
0.0837652
0.0782852
0.072898
0.0676249
0.0624866
0.0575029
0.0526924
0.0480725
0.0436583
0.0394633
0.0354984
0.0317722
0.0282908
0.0250575
0.0220729
0.0193353
0.0168403
0.0145813
0.0125497
0.0107351
0.00912543
0.0077077
0.00646796
0.00539173
0.00446433
0.00367113
0.00299785
0.00243072
0.00195672
0.0015636
0.00124035
0.000976133
0.412733
0.412193
0.411488
0.410623
0.409603
0.408434
0.407128
0.405697
0.404152
0.402505
0.400767
0.39895
0.397063
0.395119
0.393126
0.391095
0.389033
0.38695
0.384851
0.382745
0.380637
0.378533
0.376437
0.374354
0.372288
0.370241
0.368216
0.366215
0.364241
0.362294
0.360375
0.358486
0.356627
0.354798
0.352999
0.35123
0.349491
0.347781
0.346101
0.344449
0.342826
0.341231
0.339663
0.338122
0.336608
0.335119
0.333656
0.332219
0.330807
0.329419
0.328055
0.326716
0.325401
0.32411
0.322842
0.321598
0.320377
0.319179
0.318005
0.316853
0.315724
0.314616
0.313531
0.312468
0.311425
0.310403
0.309401
0.308418
0.307454
0.306507
0.305578
0.304665
0.303767
0.302883
0.302011
0.301152
0.300303
0.299463
0.29863
0.297804
0.296982
0.296163
0.295346
0.294527
0.293706
0.292881
0.292049
0.291208
0.290356
0.289491
0.288611
0.287713
0.286794
0.285852
0.284884
0.283888
0.28286