/*--------------------------------*- C++ -*----------------------------------*\
  =========                 |
  \\      /  F ield         | OpenFOAM: The Open Source CFD Toolbox
   \\    /   O peration     | Website:  https://openfoam.org
    \\  /    A nd           | Version:  7
     \\/     M anipulation  |
\*---------------------------------------------------------------------------*/
FoamFile
{
    version     2.0;
    format      ascii;
    class       volScalarField;
    location    "0.045";
    object      T;
}
// * * * * * * * * * * * * * * * * * * * * * * * * * * * * * * * * * * * * * //

dimensions      [0 0 0 1 0 0 0];

internalField   nonuniform List<scalar> 
12225
(
1.00689
1.0041
1.00171
1.00089
1.00043
1.00012
0.999964
0.999897
0.999863
0.999839
0.999815
0.999767
0.999654
0.999364
0.998631
0.996851
0.992217
0.981065
0.995136
0.994812
0.996745
0.998334
0.999127
0.999464
0.999644
0.999763
0.999836
0.999875
0.999885
0.999861
0.999762
0.99949
0.998787
0.99709
0.992872
0.982969
0.999619
1.00005
1.00023
1.00028
1.0002
1.00008
0.999991
0.999952
0.999931
0.999912
0.999887
0.999841
0.999733
0.999466
0.998806
0.997247
0.993565
0.985612
1.00032
1.00017
0.999777
0.999749
0.999819
0.999835
0.999837
0.99985
0.999863
0.999867
0.999859
0.999826
0.999733
0.999493
0.998902
0.997531
0.994463
0.988281
1.00014
0.999947
0.999658
0.999701
0.999818
0.999857
0.999862
0.999871
0.99988
0.999882
0.999873
0.999842
0.999755
0.999538
0.999018
0.997851
0.995372
0.990682
1.00002
0.999951
0.999769
0.999773
0.999847
0.999872
0.999872
0.999876
0.999883
0.999884
0.999876
0.999848
0.99977
0.99958
0.999137
0.998174
0.996228
0.992733
0.999995
1
0.999864
0.999822
0.999858
0.999877
0.999879
0.999882
0.999887
0.999889
0.999882
0.999856
0.999789
0.999626
0.999259
0.998489
0.996998
0.994431
0.999995
1.00002
0.999917
0.999858
0.999872
0.999888
0.999889
0.999891
0.999895
0.999896
0.99989
0.999867
0.999809
0.999675
0.999379
0.998779
0.997662
0.995802
0.999995
1.00002
0.999951
0.999894
0.999893
0.999902
0.999902
0.999902
0.999904
0.999904
0.999898
0.999879
0.99983
0.999722
0.999491
0.999037
0.998217
0.996888
0.999995
1.00002
0.999976
0.999926
0.999916
0.999918
0.999916
0.999915
0.999915
0.999914
0.999908
0.999891
0.999852
0.999768
0.999591
0.999256
0.998668
0.997732
0.999996
1.00002
0.999992
0.999953
0.999938
0.999934
0.999931
0.999927
0.999926
0.999924
0.999919
0.999905
0.999874
0.999809
0.999678
0.999437
0.999023
0.998377
0.999997
1.00001
1
0.999971
0.999954
0.999949
0.999944
0.99994
0.999937
0.999934
0.999929
0.999918
0.999894
0.999844
0.999746
0.99957
0.999275
0.99882
0.999997
1.00001
1.00001
0.999984
0.999968
0.999962
0.999957
0.999952
0.999948
0.999944
0.99994
0.999931
0.999911
0.999874
0.999803
0.999678
0.999471
0.999157
0.999997
1.00001
1.00001
0.999993
0.999981
0.999974
0.999968
0.999964
0.99996
0.999956
0.999952
0.999945
0.99993
0.999903
0.999856
0.999772
0.999638
0.999436
0.999998
1.00001
1.00001
1
0.999991
0.999985
0.999981
0.999977
0.999972
0.999967
0.999963
0.999958
0.999949
0.999932
0.999901
0.999849
0.99977
0.999651
0.999998
1.00001
1.00001
1
0.999998
0.999994
0.999991
0.999988
0.999983
0.999979
0.999975
0.999971
0.999966
0.999955
0.999936
0.999907
0.999864
0.999801
0.999998
1.00001
1.00001
1.00001
1
0.999999
0.999998
0.999996
0.999992
0.999989
0.999985
0.999981
0.999978
0.999973
0.999963
0.999948
0.999927
0.999897
0.999999
1.00001
1.00001
1.00001
1
1
1
0.999998
0.999995
0.999993
0.999992
0.999991
0.999987
0.999982
0.999978
0.999973
0.999963
0.99995
1
1.00001
1.00001
1.00001
1
1
1
0.999999
0.999998
0.999996
0.999994
0.999992
0.99999
0.999987
0.999986
0.999982
0.999978
0.999972
0.999999
1.00001
1.00001
1.00001
1.00001
1
0.999998
0.999996
0.999993
0.999991
0.999989
0.999987
0.999985
0.999982
0.999981
0.999978
0.999975
0.999973
0.999997
1.00001
1.00001
1.00001
1
0.999998
0.999993
0.999988
0.999985
0.999982
0.999979
0.999976
0.999973
0.999972
0.99997
0.999968
0.999967
0.999965
0.999997
1.00001
1.00002
1.00001
0.999995
0.999988
0.999982
0.999975
0.999969
0.999965
0.999964
0.999963
0.99996
0.999959
0.999958
0.999958
0.999956
0.999955
0.999996
1.00003
1.00003
0.999996
0.999972
0.999966
0.999961
0.999956
0.999952
0.999949
0.999948
0.999947
0.999946
0.999945
0.999945
0.999944
0.999944
0.999944
0.999989
1.00005
1.00004
0.999983
0.999948
0.999938
0.999932
0.999929
0.999929
0.999931
0.999932
0.999933
0.999932
0.999933
0.999934
0.999934
0.999935
0.999935
0.99999
1.00004
0.999992
0.999937
0.999931
0.999929
0.999917
0.999909
0.999908
0.99991
0.999912
0.999915
0.999917
0.999918
0.999919
0.999921
0.999923
0.999925
1.00013
1.00009
0.999825
0.999756
0.999837
0.999896
0.999909
0.999912
0.999916
0.999918
0.99992
0.999921
0.999922
0.999922
0.999923
0.999924
0.999925
0.999926
1.0005
1.00053
0.999952
0.999665
0.999667
0.999718
0.999754
0.999789
0.99982
0.999844
0.999861
0.999875
0.999885
0.999893
0.9999
0.999905
0.999909
0.999915
1.00004
1.0008
1.00096
1.0008
1.00056
1.00034
1.00018
1.00009
1.00003
0.999996
0.99997
0.999954
0.999943
0.999935
0.99993
0.999925
0.999921
0.999921
0.994604
0.993791
0.995838
0.997661
0.998662
0.999144
0.999416
0.999594
0.99971
0.999782
0.999829
0.999863
0.999887
0.999905
0.999918
0.999928
0.999933
0.99993
1.00635
1.00419
1.00178
1.00096
1.00054
1.00023
1.00005
0.999977
0.999939
0.999915
0.9999
0.999892
0.999888
0.999886
0.999885
0.999886
0.999888
0.999899
0.456259
0.456215
0.456095
0.455916
0.455687
0.455408
0.455075
0.454691
0.454259
0.453781
0.453258
0.452691
0.452082
0.451434
0.450748
0.450027
0.449274
0.448493
0.447687
0.446859
0.446013
0.445154
0.444284
0.443409
0.442532
0.441657
0.440788
0.439926
0.439074
0.438238
0.437426
0.436659
0.435983
0.435476
0.434996
0.434435
0.433907
0.433387
0.432888
0.432416
0.431958
0.431566
0.431263
0.43098
0.430755
0.430615
0.43052
0.430479
0.43049
0.430552
0.430664
0.430826
0.431035
0.431291
0.431593
0.43194
0.432329
0.43276
0.433232
0.433742
0.434289
0.434872
0.435489
0.436137
0.436817
0.437524
0.438259
0.439018
0.439801
0.440605
0.441429
0.442271
0.443128
0.444001
0.444885
0.445781
0.446686
0.447599
0.448519
0.449442
0.450369
0.451298
0.452228
0.453156
0.454083
0.455005
0.455923
0.456836
0.457741
0.458639
0.459528
0.460407
0.461275
0.46213
0.462973
0.463801
0.464612
0.465406
0.466185
0.466948
0.467693
0.468418
0.469124
0.46981
0.470473
0.471115
0.471733
0.472327
0.472896
0.47344
0.473957
0.474448
0.47491
0.475344
0.475748
0.476122
0.476465
0.476776
0.477053
0.477297
0.477505
0.477678
0.477814
0.477912
0.47797
0.477989
0.477967
0.477903
0.477797
0.477647
0.477452
0.477211
0.476924
0.476589
0.476205
0.47577
0.475285
0.474747
0.474156
0.47351
0.472809
0.47205
0.471232
0.470354
0.469415
0.468412
0.467345
0.466213
0.465013
0.463746
0.462408
0.461
0.459519
0.457964
0.456335
0.454629
0.452846
0.450984
0.449041
0.447018
0.444911
0.442719
0.440436
0.438055
0.435576
0.433006
0.430348
0.4276
0.424762
0.421831
0.418806
0.415686
0.41247
0.409157
0.405751
0.402255
0.398697
0.395048
0.391565
0.387622
0.457693
0.457637
0.45753
0.457363
0.457143
0.456871
0.456546
0.456168
0.455737
0.455255
0.454724
0.454148
0.453529
0.45287
0.452175
0.451446
0.450687
0.449901
0.449091
0.448261
0.447416
0.44656
0.445697
0.444833
0.443973
0.443123
0.442289
0.441478
0.440694
0.439941
0.439219
0.438518
0.437831
0.437052
0.436236
0.435544
0.434929
0.434389
0.433912
0.433487
0.433124
0.432802
0.432493
0.432252
0.43208
0.43194
0.431846
0.431802
0.431809
0.431866
0.431974
0.432131
0.432336
0.432587
0.432885
0.433227
0.433612
0.434038
0.434505
0.435011
0.435553
0.436132
0.436744
0.437388
0.438063
0.438766
0.439497
0.440252
0.441031
0.441831
0.442651
0.443489
0.444344
0.445213
0.446095
0.446988
0.44789
0.448801
0.449718
0.45064
0.451565
0.452493
0.453421
0.454348
0.455273
0.456195
0.457113
0.458025
0.45893
0.459827
0.460716
0.461594
0.462462
0.463317
0.46416
0.46499
0.465805
0.466607
0.467391
0.468156
0.468903
0.469631
0.470338
0.471025
0.47169
0.472332
0.472952
0.473547
0.474118
0.474663
0.475182
0.475674
0.476138
0.476573
0.476978
0.477353
0.477697
0.478008
0.478286
0.478531
0.47874
0.478913
0.479049
0.479147
0.479205
0.479224
0.479201
0.479137
0.47903
0.478879
0.478683
0.478441
0.478153
0.477816
0.47743
0.476993
0.476506
0.475965
0.475371
0.474723
0.474018
0.473255
0.472434
0.471552
0.470608
0.469601
0.468529
0.467392
0.466187
0.464913
0.46357
0.462155
0.460668
0.459107
0.457471
0.455758
0.453967
0.452097
0.450147
0.448115
0.446
0.443799
0.441514
0.439144
0.436688
0.434142
0.431505
0.428778
0.425959
0.423046
0.420039
0.416935
0.413734
0.410436
0.407044
0.403562
0.400014
0.396386
0.392867
0.389096
0.460641
0.460551
0.460424
0.460245
0.460011
0.459722
0.459376
0.458977
0.458526
0.458024
0.457475
0.456881
0.456244
0.455568
0.454855
0.45411
0.453334
0.452533
0.451708
0.450865
0.450008
0.44914
0.448266
0.447391
0.446518
0.445653
0.444799
0.443957
0.443132
0.442323
0.441534
0.44077
0.440037
0.439327
0.438643
0.438003
0.437405
0.436856
0.436359
0.435917
0.435533
0.435207
0.434932
0.434705
0.434523
0.434384
0.434292
0.434249
0.434255
0.43431
0.434414
0.434567
0.434766
0.435013
0.435304
0.43564
0.436019
0.436439
0.4369
0.437399
0.437936
0.438508
0.439115
0.439754
0.440423
0.441122
0.441847
0.442599
0.443374
0.444171
0.444988
0.445824
0.446677
0.447545
0.448426
0.449319
0.450223
0.451134
0.452053
0.452977
0.453905
0.454836
0.455768
0.4567
0.457631
0.458559
0.459482
0.460401
0.461314
0.462219
0.463116
0.464004
0.464881
0.465746
0.466599
0.467439
0.468264
0.469074
0.469867
0.470644
0.471403
0.472143
0.472863
0.473562
0.474241
0.474897
0.47553
0.476139
0.476724
0.477283
0.477816
0.478322
0.4788
0.479249
0.479669
0.480058
0.480416
0.480741
0.481034
0.481292
0.481515
0.481702
0.481851
0.481962
0.482034
0.482065
0.482055
0.482004
0.481909
0.48177
0.481585
0.481355
0.481077
0.48075
0.480374
0.479948
0.479469
0.478938
0.478352
0.477712
0.477014
0.476259
0.475444
0.474567
0.473629
0.472627
0.47156
0.470426
0.469225
0.467954
0.466613
0.4652
0.463715
0.462154
0.460519
0.458806
0.457015
0.455144
0.453193
0.45116
0.449043
0.446842
0.444557
0.442189
0.439736
0.437195
0.434563
0.43184
0.429024
0.426115
0.42311
0.420008
0.416809
0.413512
0.410118
0.406633
0.403075
0.399436
0.395869
0.392156
0.46505
0.464926
0.464772
0.464573
0.464317
0.464002
0.463631
0.463205
0.462727
0.462199
0.461624
0.461004
0.460342
0.459642
0.458906
0.458137
0.45734
0.456517
0.455673
0.454811
0.453936
0.453051
0.452161
0.45127
0.450382
0.449501
0.44863
0.447773
0.446933
0.446114
0.445319
0.444555
0.443822
0.443119
0.442448
0.441819
0.441232
0.440688
0.440191
0.439741
0.439341
0.438992
0.438692
0.438444
0.438246
0.438096
0.437996
0.437945
0.437943
0.437989
0.438084
0.438226
0.438416
0.438651
0.438932
0.439257
0.439625
0.440034
0.440484
0.440973
0.441499
0.442061
0.442658
0.443288
0.443948
0.444639
0.445357
0.446101
0.44687
0.447662
0.448475
0.449306
0.450156
0.451022
0.451902
0.452794
0.453698
0.454611
0.455532
0.456459
0.457391
0.458327
0.459265
0.460204
0.461142
0.462079
0.463012
0.463941
0.464865
0.465782
0.466692
0.467593
0.468484
0.469364
0.470233
0.471089
0.471931
0.472758
0.47357
0.474365
0.475143
0.475902
0.476642
0.477362
0.478061
0.478739
0.479393
0.480024
0.480631
0.481212
0.481768
0.482296
0.482797
0.483269
0.483711
0.484124
0.484504
0.484853
0.485168
0.485449
0.485694
0.485903
0.486075
0.486208
0.486301
0.486354
0.486365
0.486334
0.48626
0.486141
0.485976
0.485764
0.485505
0.485197
0.484838
0.484429
0.483967
0.483451
0.482881
0.482255
0.481571
0.480828
0.480026
0.479161
0.478234
0.477242
0.476184
0.47506
0.473867
0.472604
0.471269
0.469863
0.468383
0.466827
0.465196
0.463486
0.461698
0.45983
0.457881
0.455849
0.453734
0.451534
0.44925
0.44688
0.444425
0.441881
0.439247
0.436522
0.433704
0.430792
0.427784
0.424679
0.421476
0.418173
0.414773
0.411276
0.407699
0.404037
0.400419
0.396688
0.470919
0.47076
0.47058
0.470359
0.470079
0.469737
0.469336
0.468879
0.46837
0.46781
0.467202
0.46655
0.465857
0.465125
0.464358
0.46356
0.462734
0.461884
0.461014
0.460127
0.459228
0.458321
0.457409
0.456498
0.455591
0.454691
0.453804
0.452932
0.45208
0.45125
0.450448
0.449675
0.448934
0.448226
0.447553
0.44692
0.446329
0.445781
0.445279
0.444822
0.444414
0.444054
0.443742
0.443481
0.443269
0.443106
0.442992
0.442928
0.442912
0.442945
0.443026
0.443154
0.443329
0.44355
0.443816
0.444125
0.444478
0.444872
0.445307
0.445782
0.446293
0.446842
0.447425
0.448042
0.448691
0.44937
0.450078
0.450813
0.451572
0.452356
0.453162
0.453988
0.454832
0.455694
0.456571
0.457462
0.458365
0.459279
0.460202
0.461132
0.462068
0.46301
0.463954
0.4649
0.465847
0.466793
0.467737
0.468678
0.469615
0.470546
0.471471
0.472388
0.473296
0.474194
0.475081
0.475956
0.476818
0.477667
0.4785
0.479317
0.480118
0.480901
0.481666
0.48241
0.483135
0.483838
0.484519
0.485176
0.48581
0.486419
0.487002
0.487558
0.488087
0.488587
0.489058
0.489498
0.489907
0.490284
0.490627
0.490936
0.49121
0.491447
0.491646
0.491806
0.491926
0.492006
0.492043
0.492038
0.491989
0.491895
0.491754
0.491567
0.49133
0.491045
0.490708
0.49032
0.489878
0.489383
0.488831
0.488223
0.487557
0.486831
0.486044
0.485194
0.484281
0.483302
0.482256
0.481143
0.47996
0.478707
0.477382
0.475983
0.47451
0.472961
0.471334
0.46963
0.467846
0.465981
0.464034
0.462004
0.45989
0.457691
0.455407
0.453036
0.450579
0.448032
0.445395
0.442667
0.439846
0.436931
0.433919
0.43081
0.427602
0.424292
0.420883
0.417373
0.413777
0.410088
0.406423
0.402635
0.478267
0.478078
0.477873
0.477629
0.477323
0.476952
0.476519
0.476028
0.475483
0.474887
0.474243
0.473554
0.472824
0.472056
0.471253
0.470421
0.469561
0.468679
0.467778
0.466862
0.465935
0.465001
0.464065
0.463131
0.462202
0.461283
0.460378
0.45949
0.458623
0.457781
0.456966
0.456182
0.455429
0.454711
0.45403
0.453388
0.452788
0.452231
0.451718
0.451251
0.450831
0.450459
0.450134
0.449858
0.449631
0.449452
0.449322
0.44924
0.449207
0.449222
0.449284
0.449393
0.449549
0.44975
0.449996
0.450286
0.450619
0.450993
0.451409
0.451864
0.452357
0.452888
0.453454
0.454054
0.454686
0.45535
0.456043
0.456764
0.457512
0.458284
0.459079
0.459896
0.460733
0.461588
0.462459
0.463346
0.464247
0.465159
0.466081
0.467013
0.467952
0.468897
0.469847
0.470799
0.471754
0.47271
0.473664
0.474617
0.475566
0.476512
0.477452
0.478385
0.479311
0.480227
0.481134
0.48203
0.482914
0.483785
0.484642
0.485483
0.486309
0.487118
0.487909
0.488682
0.489434
0.490166
0.490876
0.491563
0.492227
0.492866
0.49348
0.494067
0.494627
0.495159
0.495662
0.496134
0.496575
0.496984
0.497359
0.4977
0.498005
0.498273
0.498504
0.498695
0.498846
0.498956
0.499023
0.499048
0.499027
0.498961
0.498849
0.498688
0.498479
0.498219
0.497908
0.497544
0.497126
0.496653
0.496123
0.495536
0.49489
0.494183
0.493414
0.492581
0.491684
0.49072
0.489689
0.488589
0.487418
0.486176
0.484861
0.483472
0.482007
0.480465
0.478845
0.477146
0.475366
0.473505
0.471561
0.469533
0.467421
0.465223
0.462938
0.460567
0.458108
0.455559
0.45292
0.450189
0.447365
0.444446
0.441431
0.438318
0.435104
0.431788
0.42837
0.424848
0.421233
0.417517
0.413808
0.409948
0.48713
0.486919
0.486691
0.486423
0.486089
0.485686
0.485219
0.484692
0.484109
0.483474
0.48279
0.48206
0.48129
0.480482
0.47964
0.478769
0.477873
0.476955
0.476019
0.475071
0.474113
0.473151
0.472187
0.471228
0.470276
0.469335
0.468409
0.467503
0.466618
0.46576
0.464929
0.46413
0.463363
0.462632
0.461938
0.461282
0.460669
0.460097
0.45957
0.459088
0.458652
0.458263
0.457921
0.457626
0.457379
0.45718
0.457029
0.456926
0.45687
0.456861
0.4569
0.456985
0.457116
0.457293
0.457514
0.457779
0.458087
0.458437
0.458828
0.459259
0.459728
0.460235
0.460779
0.461357
0.461968
0.462611
0.463285
0.463988
0.464718
0.465475
0.466255
0.467058
0.467883
0.468727
0.46959
0.470468
0.471362
0.472269
0.473188
0.474118
0.475056
0.476002
0.476954
0.477911
0.478871
0.479834
0.480797
0.481759
0.48272
0.483678
0.484631
0.48558
0.486522
0.487456
0.488382
0.489298
0.490203
0.491096
0.491976
0.492843
0.493694
0.494529
0.495347
0.496147
0.496928
0.497689
0.498429
0.499147
0.499842
0.500513
0.50116
0.50178
0.502373
0.502938
0.503474
0.50398
0.504455
0.504897
0.505307
0.505682
0.50602
0.506322
0.506586
0.506811
0.506995
0.507138
0.507237
0.507294
0.507305
0.50727
0.507187
0.507056
0.506876
0.506644
0.50636
0.506023
0.505631
0.505183
0.504677
0.504113
0.503489
0.502803
0.502054
0.501241
0.500362
0.499415
0.4984
0.497314
0.496157
0.494928
0.493624
0.492245
0.49079
0.489257
0.487644
0.485951
0.484177
0.482321
0.48038
0.478355
0.476245
0.474048
0.471765
0.469393
0.466933
0.464382
0.461741
0.459008
0.456182
0.45326
0.450241
0.447124
0.443906
0.440584
0.437158
0.433625
0.429992
0.426252
0.422502
0.418571
0.497565
0.497335
0.497085
0.496791
0.496427
0.495992
0.495489
0.494924
0.494302
0.493625
0.492898
0.492126
0.491313
0.490462
0.489578
0.488666
0.487729
0.486773
0.4858
0.484816
0.483825
0.482831
0.481838
0.480851
0.479872
0.478907
0.477959
0.47703
0.476125
0.475246
0.474397
0.473578
0.472794
0.472044
0.471332
0.470659
0.470027
0.469437
0.468891
0.468389
0.467932
0.467521
0.467156
0.466838
0.466566
0.466342
0.466165
0.466034
0.465951
0.465914
0.465923
0.465979
0.46608
0.466226
0.466417
0.466652
0.466929
0.467248
0.467609
0.46801
0.46845
0.468927
0.469442
0.469992
0.470576
0.471193
0.471842
0.472521
0.473228
0.473962
0.474722
0.475506
0.476313
0.477141
0.477988
0.478854
0.479735
0.480632
0.481542
0.482465
0.483398
0.48434
0.48529
0.486246
0.487207
0.488172
0.489139
0.490107
0.491075
0.492041
0.493005
0.493965
0.49492
0.495869
0.496811
0.497744
0.498667
0.49958
0.500481
0.50137
0.502244
0.503104
0.503947
0.504773
0.505582
0.506371
0.50714
0.507887
0.508612
0.509314
0.509992
0.510644
0.51127
0.511868
0.512437
0.512977
0.513486
0.513962
0.514406
0.514815
0.515188
0.515524
0.515822
0.516081
0.516299
0.516475
0.516608
0.516697
0.51674
0.516737
0.516686
0.516586
0.516436
0.516233
0.515978
0.515669
0.515304
0.514882
0.514403
0.513863
0.513262
0.512599
0.511872
0.511079
0.510219
0.509291
0.508292
0.507223
0.506081
0.504866
0.503575
0.502208
0.500763
0.49924
0.497636
0.495951
0.494183
0.492332
0.490397
0.488376
0.486268
0.484074
0.481792
0.479421
0.47696
0.474409
0.471767
0.469033
0.466204
0.463281
0.46026
0.45714
0.453919
0.450593
0.44716
0.443617
0.439971
0.436209
0.432425
0.428429
0.509639
0.509392
0.509119
0.508797
0.508402
0.507932
0.507392
0.506788
0.506123
0.505404
0.504633
0.503816
0.502957
0.502062
0.501134
0.500178
0.499199
0.498201
0.497189
0.496167
0.49514
0.494111
0.493085
0.492067
0.491059
0.490066
0.489091
0.488137
0.487207
0.486304
0.485431
0.48459
0.483782
0.48301
0.482275
0.48158
0.480924
0.480311
0.479739
0.479212
0.478729
0.47829
0.477897
0.47755
0.477249
0.476993
0.476784
0.476621
0.476504
0.476433
0.476407
0.476428
0.476493
0.476602
0.476756
0.476954
0.477194
0.477476
0.477799
0.478163
0.478567
0.479008
0.479487
0.480002
0.480552
0.481136
0.481752
0.4824
0.483076
0.483782
0.484514
0.485271
0.486053
0.486857
0.487682
0.488527
0.489389
0.490268
0.491163
0.492071
0.492991
0.493922
0.494863
0.495812
0.496767
0.497728
0.498692
0.49966
0.500629
0.501598
0.502566
0.503532
0.504494
0.505452
0.506404
0.507349
0.508286
0.509213
0.510131
0.511036
0.511929
0.512809
0.513673
0.514522
0.515353
0.516166
0.516961
0.517734
0.518487
0.519216
0.519923
0.520604
0.521259
0.521888
0.522488
0.523059
0.523599
0.524108
0.524584
0.525026
0.525432
0.525801
0.526131
0.526423
0.526674
0.526882
0.527048
0.527169
0.527245
0.527273
0.527253
0.527184
0.527063
0.526891
0.526665
0.526384
0.526046
0.525652
0.525198
0.524683
0.524107
0.523467
0.522762
0.52199
0.521151
0.520242
0.519262
0.51821
0.517084
0.515884
0.514607
0.513253
0.51182
0.510308
0.508714
0.507038
0.505278
0.503434
0.501504
0.499488
0.497385
0.495194
0.492915
0.490546
0.488087
0.485537
0.482895
0.480161
0.477332
0.474408
0.471387
0.468266
0.465043
0.461715
0.458279
0.454731
0.451075
0.447296
0.443486
0.439435
0.52343
0.523165
0.522868
0.522516
0.522088
0.521581
0.521002
0.520357
0.519649
0.518884
0.518067
0.517203
0.516297
0.515354
0.514379
0.513377
0.512353
0.511312
0.510257
0.509194
0.508128
0.507061
0.506
0.504947
0.503906
0.50288
0.501874
0.500891
0.499932
0.499001
0.498099
0.49723
0.496395
0.495595
0.494832
0.494108
0.493424
0.49278
0.492179
0.49162
0.491105
0.490633
0.490206
0.489823
0.489486
0.489193
0.488946
0.488744
0.488587
0.488475
0.488408
0.488385
0.488408
0.488474
0.488584
0.488737
0.488932
0.48917
0.489449
0.489768
0.490127
0.490524
0.490959
0.491431
0.491939
0.492481
0.493056
0.493663
0.494301
0.494968
0.495663
0.496385
0.497132
0.497903
0.498697
0.499511
0.500346
0.501198
0.502067
0.502952
0.50385
0.504762
0.505684
0.506616
0.507556
0.508504
0.509458
0.510415
0.511377
0.51234
0.513304
0.514267
0.515229
0.516187
0.517142
0.518091
0.519033
0.519968
0.520894
0.52181
0.522714
0.523607
0.524485
0.52535
0.526198
0.527029
0.527842
0.528636
0.52941
0.530162
0.530891
0.531597
0.532277
0.532931
0.533558
0.534156
0.534724
0.53526
0.535765
0.536235
0.53667
0.537069
0.53743
0.537751
0.538032
0.538271
0.538466
0.538618
0.538723
0.538781
0.538791
0.53875
0.538659
0.538515
0.538316
0.538063
0.537752
0.537384
0.536955
0.536466
0.535913
0.535297
0.534614
0.533864
0.533045
0.532156
0.531195
0.530161
0.529052
0.527868
0.526607
0.525267
0.523847
0.522346
0.520764
0.519098
0.517347
0.515512
0.51359
0.511581
0.509484
0.507298
0.505023
0.502658
0.500202
0.497655
0.495016
0.492283
0.489457
0.486535
0.483515
0.480396
0.477174
0.473847
0.470411
0.466861
0.463201
0.459412
0.455584
0.451491
0.539025
0.538741
0.538417
0.538033
0.537569
0.537024
0.536404
0.535714
0.53496
0.534148
0.533282
0.532368
0.531412
0.530419
0.529394
0.528343
0.527271
0.526182
0.525081
0.523974
0.522864
0.521756
0.520654
0.519562
0.518484
0.517422
0.51638
0.515362
0.514369
0.513404
0.512469
0.511566
0.510697
0.509864
0.509067
0.508309
0.507589
0.50691
0.506272
0.505676
0.505122
0.50461
0.504143
0.503718
0.503338
0.503001
0.502709
0.50246
0.502256
0.502096
0.50198
0.501908
0.501879
0.501894
0.501952
0.502052
0.502195
0.502379
0.502605
0.50287
0.503176
0.50352
0.503902
0.504321
0.504776
0.505266
0.50579
0.506346
0.506935
0.507553
0.508201
0.508876
0.509578
0.510305
0.511056
0.51183
0.512624
0.513438
0.514271
0.515121
0.515986
0.516866
0.517758
0.518662
0.519576
0.5205
0.521431
0.522368
0.52331
0.524256
0.525205
0.526154
0.527104
0.528053
0.529
0.529942
0.53088
0.531812
0.532737
0.533653
0.53456
0.535456
0.536339
0.53721
0.538066
0.538907
0.539731
0.540537
0.541324
0.54209
0.542835
0.543557
0.544255
0.544927
0.545574
0.546192
0.546781
0.54734
0.547867
0.548361
0.54882
0.549243
0.549628
0.549975
0.550281
0.550546
0.550768
0.550945
0.551077
0.551161
0.551197
0.551183
0.551117
0.550999
0.550826
0.550598
0.550313
0.549969
0.549564
0.549098
0.548569
0.547975
0.547314
0.546585
0.545787
0.544917
0.543975
0.54296
0.541868
0.540701
0.539455
0.53813
0.536725
0.535237
0.533667
0.532013
0.530274
0.528448
0.526536
0.524535
0.522446
0.520268
0.517999
0.51564
0.51319
0.510648
0.508014
0.505286
0.502464
0.499546
0.496531
0.493417
0.4902
0.486878
0.483446
0.4799
0.476242
0.47245
0.468614
0.464493
0.556523
0.556219
0.555866
0.555446
0.554942
0.554355
0.553689
0.552951
0.552148
0.551284
0.550365
0.549397
0.548387
0.54734
0.546261
0.545156
0.544031
0.54289
0.541739
0.540582
0.539425
0.53827
0.537123
0.535987
0.534865
0.533761
0.532679
0.531619
0.530586
0.529581
0.528607
0.527665
0.526756
0.525883
0.525045
0.524246
0.523485
0.522763
0.522081
0.52144
0.520841
0.520283
0.519767
0.519293
0.518862
0.518474
0.518129
0.517827
0.517567
0.517351
0.517178
0.517047
0.516959
0.516914
0.516911
0.516949
0.51703
0.517151
0.517313
0.517515
0.517756
0.518036
0.518354
0.518709
0.519101
0.519527
0.519988
0.520482
0.521009
0.521566
0.522153
0.52277
0.523413
0.524083
0.524778
0.525497
0.526239
0.527001
0.527784
0.528585
0.529403
0.530237
0.531086
0.531948
0.532823
0.533708
0.534602
0.535505
0.536415
0.53733
0.53825
0.539173
0.540098
0.541024
0.54195
0.542873
0.543794
0.54471
0.545621
0.546526
0.547423
0.54831
0.549187
0.550053
0.550906
0.551745
0.552569
0.553376
0.554166
0.554936
0.555687
0.556416
0.557122
0.557804
0.558461
0.559091
0.559693
0.560266
0.560807
0.561317
0.561792
0.562232
0.562636
0.563001
0.563327
0.563612
0.563854
0.564052
0.564205
0.564311
0.564368
0.564376
0.564333
0.564236
0.564086
0.56388
0.563616
0.563294
0.562912
0.562467
0.561959
0.561385
0.560745
0.560036
0.559258
0.558407
0.557484
0.556486
0.555413
0.554262
0.553033
0.551724
0.550333
0.54886
0.547304
0.545663
0.543936
0.542122
0.540221
0.538231
0.536152
0.533984
0.531724
0.529374
0.526932
0.524398
0.521772
0.519052
0.516237
0.513328
0.510321
0.507215
0.504007
0.500694
0.497271
0.493735
0.490085
0.486299
0.482465
0.478328
0.576036
0.575708
0.575321
0.574861
0.574313
0.573677
0.57296
0.572169
0.571309
0.570387
0.569409
0.568381
0.56731
0.566202
0.565063
0.563898
0.562714
0.561515
0.560307
0.559095
0.557883
0.556676
0.555477
0.55429
0.553119
0.551967
0.550836
0.54973
0.54865
0.547599
0.546578
0.545589
0.544634
0.543713
0.542829
0.541981
0.54117
0.540398
0.539666
0.538972
0.538319
0.537707
0.537135
0.536604
0.536114
0.535666
0.535259
0.534894
0.534571
0.534289
0.534049
0.533851
0.533694
0.533578
0.533504
0.53347
0.533477
0.533524
0.533612
0.533738
0.533904
0.534108
0.534349
0.534627
0.534942
0.535292
0.535676
0.536094
0.536545
0.537027
0.537539
0.538082
0.538652
0.53925
0.539874
0.540523
0.541195
0.541891
0.542607
0.543344
0.544099
0.544872
0.545661
0.546466
0.547284
0.548115
0.548957
0.54981
0.550671
0.55154
0.552415
0.553296
0.554181
0.555068
0.555957
0.556847
0.557735
0.558621
0.559504
0.560382
0.561255
0.56212
0.562977
0.563824
0.56466
0.565484
0.566295
0.567091
0.567871
0.568634
0.569378
0.570102
0.570805
0.571486
0.572142
0.572774
0.573378
0.573955
0.574501
0.575017
0.5755
0.575948
0.576361
0.576737
0.577075
0.577372
0.577627
0.577839
0.578006
0.578128
0.578201
0.578225
0.578198
0.578119
0.577986
0.577798
0.577552
0.577249
0.576885
0.576458
0.575969
0.575413
0.574791
0.574101
0.57334
0.572508
0.571602
0.570622
0.569566
0.568432
0.567219
0.565926
0.564551
0.563094
0.561552
0.559925
0.558213
0.556413
0.554525
0.552548
0.550482
0.548325
0.546077
0.543739
0.541308
0.538786
0.53617
0.533461
0.530658
0.52776
0.524766
0.521672
0.518478
0.515178
0.511771
0.50825
0.504615
0.500843
0.497021
0.492882
0.597686
0.597331
0.596904
0.596397
0.595796
0.595104
0.594327
0.593472
0.592547
0.591557
0.59051
0.589412
0.588271
0.587092
0.585883
0.58465
0.583397
0.582132
0.580859
0.579584
0.578309
0.577041
0.575783
0.574538
0.57331
0.572102
0.570916
0.569755
0.568621
0.567515
0.56644
0.565397
0.564387
0.563412
0.562471
0.561567
0.560699
0.559869
0.559076
0.558322
0.557607
0.556931
0.556294
0.555696
0.555139
0.554621
0.554143
0.553705
0.553308
0.55295
0.552633
0.552355
0.552118
0.551921
0.551764
0.551646
0.551567
0.551528
0.551528
0.551566
0.551642
0.551756
0.551907
0.552094
0.552317
0.552575
0.552867
0.553193
0.553552
0.553943
0.554365
0.554816
0.555297
0.555806
0.556341
0.556903
0.557489
0.558099
0.558732
0.559386
0.560061
0.560754
0.561466
0.562195
0.562939
0.563698
0.564469
0.565254
0.566048
0.566853
0.567666
0.568487
0.569314
0.570146
0.570981
0.571819
0.572658
0.573498
0.574336
0.575171
0.576003
0.57683
0.57765
0.578463
0.579268
0.580062
0.580845
0.581615
0.582371
0.583112
0.583836
0.584542
0.585229
0.585895
0.586539
0.587159
0.587754
0.588323
0.588863
0.589374
0.589854
0.590301
0.590713
0.59109
0.591429
0.59173
0.59199
0.592208
0.592382
0.59251
0.592592
0.592626
0.592609
0.592541
0.59242
0.592244
0.592012
0.591722
0.591372
0.59096
0.590485
0.589945
0.589339
0.588664
0.587919
0.587103
0.586213
0.585249
0.584209
0.583092
0.581895
0.580618
0.57926
0.577818
0.576293
0.574682
0.572985
0.5712
0.569327
0.567366
0.565314
0.563172
0.560939
0.558615
0.556199
0.553691
0.55109
0.548397
0.545609
0.542726
0.539748
0.536672
0.533496
0.530216
0.526829
0.523329
0.519717
0.515967
0.512167
0.50804
0.621613
0.621223
0.620749
0.620184
0.61952
0.618758
0.617907
0.616975
0.615968
0.614895
0.613764
0.612582
0.611356
0.610094
0.608802
0.607487
0.606155
0.604811
0.603462
0.602113
0.600766
0.599428
0.598101
0.596788
0.595494
0.594221
0.592971
0.591746
0.590549
0.58938
0.588242
0.587136
0.586063
0.585023
0.584017
0.583047
0.582113
0.581215
0.580353
0.579528
0.578741
0.577991
0.577279
0.576604
0.575968
0.57537
0.574809
0.574288
0.573804
0.573359
0.572952
0.572583
0.572253
0.571961
0.571707
0.571492
0.571314
0.571174
0.571071
0.571006
0.570978
0.570986
0.57103
0.57111
0.571225
0.571374
0.571558
0.571775
0.572024
0.572306
0.572618
0.572961
0.573333
0.573734
0.574162
0.574617
0.575098
0.575604
0.576133
0.576686
0.57726
0.577855
0.578469
0.579102
0.579752
0.580419
0.581101
0.581797
0.582506
0.583227
0.583959
0.584701
0.58545
0.586207
0.58697
0.587738
0.58851
0.589284
0.590059
0.590834
0.591607
0.592378
0.593145
0.593907
0.594663
0.595411
0.596149
0.596878
0.597594
0.598298
0.598987
0.59966
0.600316
0.600953
0.60157
0.602166
0.602738
0.603286
0.603808
0.604302
0.604766
0.605199
0.6056
0.605967
0.606298
0.606592
0.606847
0.607061
0.607233
0.60736
0.607443
0.607478
0.607464
0.6074
0.607284
0.607114
0.606889
0.606607
0.606266
0.605864
0.6054
0.604871
0.604276
0.603614
0.602882
0.60208
0.601204
0.600255
0.59923
0.598128
0.596947
0.595686
0.594343
0.592918
0.591409
0.589815
0.588135
0.586367
0.584512
0.582567
0.580533
0.578408
0.576193
0.573887
0.571488
0.568998
0.566416
0.563741
0.560973
0.55811
0.555153
0.552098
0.548945
0.54569
0.542329
0.538858
0.535276
0.531556
0.527787
0.523684
0.648809
0.648373
0.647836
0.647195
0.646445
0.645589
0.644638
0.6436
0.642484
0.641301
0.640058
0.638764
0.637428
0.636057
0.634659
0.633241
0.631808
0.630367
0.628924
0.627482
0.626046
0.624621
0.623209
0.621814
0.620439
0.619086
0.617757
0.616454
0.615179
0.613934
0.612719
0.611535
0.610383
0.609265
0.60818
0.607129
0.606112
0.605131
0.604184
0.603273
0.602397
0.601557
0.600753
0.599984
0.599252
0.598555
0.597895
0.597271
0.596683
0.596131
0.595615
0.595136
0.594693
0.594286
0.593915
0.59358
0.593281
0.593019
0.592792
0.592601
0.592445
0.592324
0.592239
0.592187
0.59217
0.592187
0.592237
0.59232
0.592435
0.592582
0.59276
0.592968