/*--------------------------------*- C++ -*----------------------------------*\
  =========                 |
  \\      /  F ield         | OpenFOAM: The Open Source CFD Toolbox
   \\    /   O peration     | Website:  https://openfoam.org
    \\  /    A nd           | Version:  7
     \\/     M anipulation  |
\*---------------------------------------------------------------------------*/
FoamFile
{
    version     2.0;
    format      ascii;
    class       volScalarField;
    location    "0.03";
    object      T;
}
// * * * * * * * * * * * * * * * * * * * * * * * * * * * * * * * * * * * * * //

dimensions      [0 0 0 1 0 0 0];

internalField   nonuniform List<scalar> 
12225
(
1.00689
1.0041
1.00171
1.00089
1.00043
1.00012
0.999964
0.999896
0.999862
0.999836
0.999808
0.999747
0.9996
0.999223
0.998271
0.995952
0.989975
0.975314
0.995136
0.994812
0.996745
0.998334
0.999127
0.999464
0.999644
0.999763
0.999836
0.999872
0.999877
0.999841
0.999709
0.999353
0.998441
0.996233
0.990771
0.977865
0.999619
1.00005
1.00023
1.00028
1.0002
1.00008
0.999991
0.999951
0.99993
0.99991
0.99988
0.999822
0.999682
0.999337
0.998482
0.996456
0.991687
0.981332
1.00032
1.00017
0.999777
0.999749
0.999819
0.999835
0.999837
0.99985
0.999862
0.999864
0.999852
0.999808
0.999686
0.999373
0.998606
0.996825
0.992846
0.98481
1.00014
0.999947
0.999658
0.999701
0.999818
0.999857
0.999862
0.999871
0.999879
0.99988
0.999867
0.999825
0.999712
0.999429
0.998755
0.997239
0.994023
0.987932
1.00002
0.999951
0.999769
0.999773
0.999847
0.999872
0.999872
0.999876
0.999882
0.999882
0.999871
0.999833
0.999731
0.999484
0.998908
0.997658
0.995133
0.990596
0.999995
1
0.999864
0.999822
0.999858
0.999877
0.999879
0.999882
0.999886
0.999887
0.999877
0.999843
0.999754
0.999543
0.999066
0.998066
0.996131
0.992799
0.999995
1.00002
0.999917
0.999858
0.999872
0.999888
0.999889
0.999891
0.999894
0.999894
0.999885
0.999855
0.99978
0.999605
0.999221
0.998442
0.996992
0.994578
0.999995
1.00002
0.999951
0.999894
0.999893
0.999902
0.999902
0.999902
0.999904
0.999902
0.999894
0.999868
0.999806
0.999665
0.999365
0.998774
0.997711
0.995986
0.999995
1.00002
0.999976
0.999926
0.999916
0.999918
0.999916
0.999915
0.999915
0.999913
0.999905
0.999883
0.999832
0.999722
0.999493
0.999057
0.998293
0.99708
0.999996
1.00002
0.999992
0.999953
0.999938
0.999934
0.999931
0.999927
0.999926
0.999923
0.999916
0.999898
0.999858
0.999774
0.999604
0.99929
0.998753
0.997915
0.999997
1.00001
1
0.999971
0.999954
0.999949
0.999944
0.99994
0.999937
0.999933
0.999927
0.999912
0.999881
0.999816
0.99969
0.999461
0.999078
0.998487
0.999997
1.00001
1.00001
0.999984
0.999968
0.999962
0.999957
0.999952
0.999947
0.999943
0.999938
0.999926
0.999901
0.999853
0.999762
0.999599
0.999331
0.998922
0.999997
1.00001
1.00001
0.999993
0.999981
0.999974
0.999968
0.999964
0.99996
0.999955
0.999951
0.999942
0.999923
0.999889
0.999827
0.999719
0.999545
0.999283
0.999998
1.00001
1.00001
1
0.999991
0.999985
0.999981
0.999977
0.999972
0.999967
0.999963
0.999956
0.999944
0.999922
0.999883
0.999817
0.999713
0.999559
0.999998
1.00001
1.00001
1
0.999998
0.999994
0.999991
0.999988
0.999983
0.999979
0.999974
0.99997
0.999963
0.99995
0.999926
0.999889
0.999833
0.999751
0.999998
1.00001
1.00001
1.00001
1
0.999999
0.999998
0.999996
0.999992
0.999989
0.999985
0.999981
0.999977
0.99997
0.999958
0.999939
0.999912
0.999873
0.999999
1.00001
1.00001
1.00001
1
1
1
0.999998
0.999995
0.999993
0.999992
0.999991
0.999986
0.999981
0.999976
0.999969
0.999957
0.999941
1
1.00001
1.00001
1.00001
1
1
1
0.999999
0.999998
0.999996
0.999994
0.999992
0.99999
0.999987
0.999985
0.999981
0.999976
0.999969
0.999999
1.00001
1.00001
1.00001
1.00001
1
0.999998
0.999996
0.999993
0.999991
0.999989
0.999987
0.999985
0.999982
0.99998
0.999978
0.999974
0.999971
0.999997
1.00001
1.00001
1.00001
1
0.999998
0.999993
0.999988
0.999985
0.999982
0.999979
0.999976
0.999973
0.999972
0.99997
0.999968
0.999967
0.999964
0.999997
1.00001
1.00002
1.00001
0.999995
0.999988
0.999982
0.999975
0.999969
0.999965
0.999964
0.999963
0.99996
0.999959
0.999958
0.999958
0.999956
0.999955
0.999996
1.00003
1.00003
0.999996
0.999972
0.999966
0.999961
0.999956
0.999952
0.999949
0.999948
0.999947
0.999946
0.999945
0.999945
0.999944
0.999944
0.999944
0.999989
1.00005
1.00004
0.999983
0.999948
0.999938
0.999932
0.999929
0.999929
0.999931
0.999932
0.999933
0.999932
0.999933
0.999934
0.999934
0.999935
0.999935
0.99999
1.00004
0.999992
0.999937
0.999931
0.999929
0.999917
0.999909
0.999908
0.99991
0.999912
0.999915
0.999917
0.999918
0.999919
0.999921
0.999923
0.999925
1.00013
1.00009
0.999825
0.999756
0.999837
0.999896
0.999909
0.999912
0.999916
0.999918
0.99992
0.999921
0.999922
0.999922
0.999923
0.999924
0.999925
0.999925
1.0005
1.00053
0.999952
0.999665
0.999667
0.999718
0.999754
0.999789
0.99982
0.999844
0.999861
0.999875
0.999885
0.999893
0.9999
0.999905
0.999909
0.999915
1.00004
1.0008
1.00096
1.0008
1.00056
1.00034
1.00018
1.00009
1.00003
0.999996
0.99997
0.999954
0.999943
0.999935
0.99993
0.999925
0.999921
0.999921
0.994604
0.993791
0.995838
0.997661
0.998662
0.999144
0.999416
0.999594
0.99971
0.999782
0.999829
0.999863
0.999887
0.999905
0.999918
0.999928
0.999933
0.99993
1.00635
1.00419
1.00178
1.00096
1.00054
1.00023
1.00005
0.999977
0.999939
0.999915
0.9999
0.999891
0.999888
0.999886
0.999885
0.999886
0.999888
0.999899
0.295526
0.29546
0.295306
0.295075
0.294774
0.2944
0.293954
0.293437
0.292852
0.292199
0.291482
0.290701
0.28986
0.288959
0.288003
0.286994
0.285936
0.284832
0.283686
0.282501
0.281282
0.280034
0.27876
0.277464
0.276151
0.274826
0.273492
0.272152
0.270809
0.269469
0.268138
0.266831
0.265576
0.264424
0.263288
0.262104
0.260943
0.259789
0.258653
0.25754
0.256442
0.25539
0.254399
0.253429
0.252501
0.251633
0.250801
0.25001
0.24926
0.248551
0.247881
0.24725
0.246659
0.246106
0.24559
0.245112
0.244669
0.244262
0.24389
0.243551
0.243245
0.242971
0.242727
0.242512
0.242325
0.242165
0.242031
0.24192
0.241832
0.241765
0.241718
0.24169
0.241678
0.241681
0.241697
0.241726
0.241765
0.241813
0.241869
0.24193
0.241995
0.242062
0.242131
0.242199
0.242265
0.242327
0.242385
0.242435
0.242478
0.242511
0.242533
0.242543
0.242538
0.242519
0.242482
0.242427
0.242352
0.242255
0.242136
0.241994
0.241827
0.241634
0.241414
0.241163
0.240883
0.24057
0.240224
0.239843
0.239427
0.238972
0.238479
0.237945
0.23737
0.236752
0.236088
0.235379
0.234623
0.233817
0.23296
0.232052
0.23109
0.230073
0.228999
0.227867
0.226675
0.225422
0.224105
0.222725
0.221278
0.219765
0.218182
0.216529
0.214804
0.213007
0.211134
0.209185
0.207159
0.205055
0.20287
0.200604
0.198257
0.195825
0.19331
0.190709
0.188022
0.185249
0.182388
0.17944
0.176405
0.173283
0.170073
0.166778
0.163397
0.159931
0.156383
0.152754
0.149046
0.145261
0.141403
0.137476
0.133482
0.129426
0.125312
0.121143
0.116925
0.112669
0.108381
0.104069
0.0997397
0.0954021
0.0910641
0.086734
0.0824208
0.0781336
0.0738826
0.0696795
0.0655428
0.0614893
0.0575976
0.0538668
0.297381
0.297305
0.297156
0.296929
0.296628
0.296254
0.295807
0.295287
0.294695
0.294034
0.293306
0.292513
0.291658
0.290746
0.289778
0.288758
0.28769
0.286577
0.285423
0.284233
0.28301
0.281759
0.280485
0.279193
0.277887
0.276574
0.275259
0.273948
0.272644
0.271354
0.270076
0.268808
0.267546
0.266228
0.264889
0.263627
0.262415
0.261253
0.260134
0.259052
0.258014
0.257007
0.256016
0.255074
0.254182
0.253317
0.25249
0.251701
0.250953
0.250244
0.249576
0.248947
0.248357
0.247805
0.247291
0.246814
0.246373
0.245968
0.245598
0.245261
0.244956
0.244684
0.244442
0.24423
0.244045
0.243888
0.243756
0.243648
0.243563
0.2435
0.243457
0.243432
0.243424
0.243431
0.243453
0.243486
0.243531
0.243584
0.243645
0.243712
0.243784
0.243858
0.243934
0.244009
0.244083
0.244153
0.244218
0.244277
0.244328
0.24437
0.244401
0.24442
0.244425
0.244414
0.244388
0.244343
0.24428
0.244196
0.24409
0.24396
0.243804
0.243622
0.243412
0.243173
0.242904
0.242602
0.242267
0.241898
0.241492
0.241049
0.240567
0.240044
0.23948
0.238872
0.238219
0.237521
0.236774
0.235978
0.235132
0.234233
0.233281
0.232273
0.231208
0.230084
0.2289
0.227654
0.226345
0.224972
0.223532
0.222024
0.220447
0.218799
0.217079
0.215285
0.213416
0.21147
0.209446
0.207342
0.205158
0.202892
0.200543
0.19811
0.195592
0.192987
0.190295
0.187516
0.184649
0.181693
0.178649
0.175517
0.172296
0.168988
0.165592
0.162112
0.158546
0.154899
0.151171
0.147365
0.143484
0.139531
0.13551
0.131426
0.127283
0.123087
0.118844
0.114559
0.11024
0.105894
0.101528
0.0971509
0.0927706
0.0883957
0.0840351
0.079698
0.0753948
0.0711369
0.0669421
0.0628286
0.0588623
0.055064
0.301158
0.301055
0.300887
0.300643
0.300324
0.299928
0.299456
0.298911
0.298295
0.29761
0.296857
0.296041
0.295164
0.294228
0.293238
0.292197
0.291109
0.289976
0.288805
0.287597
0.286358
0.285093
0.283805
0.2825
0.281182
0.279855
0.278523
0.277191
0.27586
0.274534
0.273215
0.27191
0.270622
0.26935
0.268094
0.266868
0.265671
0.264508
0.263383
0.262296
0.261252
0.260249
0.259286
0.258359
0.257467
0.25661
0.255791
0.25501
0.254268
0.253565
0.252902
0.252277
0.251691
0.251144
0.250634
0.250161
0.249724
0.249323
0.248957
0.248624
0.248324
0.248057
0.24782
0.247613
0.247435
0.247284
0.247159
0.247058
0.246981
0.246927
0.246892
0.246877
0.246879
0.246897
0.24693
0.246976
0.247033
0.2471
0.247175
0.247257
0.247344
0.247435
0.247527
0.24762
0.247712
0.247801
0.247885
0.247964
0.248036
0.248099
0.248152
0.248193
0.248221
0.248234
0.248231
0.24821
0.248171
0.248111
0.248029
0.247924
0.247794
0.247638
0.247454
0.247242
0.246999
0.246724
0.246416
0.246074
0.245695
0.245278
0.244823
0.244327
0.243789
0.243208
0.242581
0.241908
0.241187
0.240417
0.239595
0.23872
0.237792
0.236807
0.235764
0.234662
0.233499
0.232273
0.230984
0.229628
0.228206
0.226715
0.225153
0.223519
0.221812
0.22003
0.218171
0.216234
0.214217
0.21212
0.20994
0.207677
0.205328
0.202894
0.200373
0.197763
0.195064
0.192276
0.189397
0.186427
0.183366
0.180214
0.176972
0.173639
0.170216
0.166704
0.163106
0.159421
0.155652
0.151802
0.147874
0.14387
0.139794
0.135652
0.131446
0.127184
0.122871
0.118513
0.114116
0.109687
0.105234
0.100765
0.0962892
0.091814
0.0873487
0.0829025
0.0784857
0.0741097
0.069791
0.0655477
0.0614363
0.0574818
0.306813
0.306682
0.306487
0.30622
0.305873
0.305447
0.304943
0.304366
0.303716
0.302997
0.302212
0.301363
0.300453
0.299487
0.298466
0.297396
0.29628
0.295121
0.293924
0.292693
0.291432
0.290146
0.28884
0.287517
0.286183
0.284841
0.283495
0.28215
0.280809
0.279476
0.278156
0.276852
0.275568
0.274303
0.273061
0.271848
0.270663
0.269511
0.268392
0.267309
0.266263
0.265255
0.264285
0.263354
0.262462
0.261608
0.260792
0.260016
0.259278
0.25858
0.25792
0.2573
0.256717
0.256173
0.255667
0.255197
0.254765
0.254368
0.254006
0.253678
0.253383
0.253121
0.252891
0.252691
0.25252
0.252376
0.25226
0.25217
0.252103
0.252059
0.252037
0.252035
0.252051
0.252084
0.252133
0.252196
0.252271
0.252357
0.252452
0.252555
0.252664
0.252778
0.252895
0.253012
0.25313
0.253246
0.253359
0.253467
0.253568
0.253662
0.253747
0.25382
0.253881
0.253928
0.25396
0.253974
0.253971
0.253947
0.253902
0.253834
0.253742
0.253625
0.25348
0.253307
0.253103
0.252868
0.2526
0.252297
0.251958
0.251581
0.251166
0.250709
0.250211
0.249668
0.249081
0.248446
0.247763
0.24703
0.246245
0.245406
0.244513
0.243562
0.242553
0.241483
0.240352
0.239157
0.237896
0.236569
0.235173
0.233706
0.232168
0.230556
0.228869
0.227104
0.225261
0.223338
0.221334
0.219246
0.217073
0.214814
0.212468
0.210033
0.207508
0.204892
0.202183
0.199382
0.196486
0.193497
0.190412
0.187233
0.183959
0.18059
0.177128
0.173572
0.169924
0.166185
0.162358
0.158444
0.154446
0.150367
0.146211
0.141981
0.137683
0.133323
0.128904
0.124434
0.119919
0.115365
0.110782
0.106176
0.101556
0.0969305
0.0923086
0.0876995
0.0831133
0.0785612
0.0740588
0.069623
0.0653035
0.0611208
0.314361
0.314199
0.313976
0.313681
0.313304
0.312844
0.312304
0.311687
0.310998
0.310238
0.309412
0.308522
0.307573
0.306567
0.305508
0.304401
0.303249
0.302057
0.300828
0.299567
0.298279
0.296967
0.295637
0.294293
0.292939
0.29158
0.29022
0.288863
0.287513
0.286175
0.284851
0.283545
0.28226
0.280997
0.279759
0.27855
0.277371
0.276224
0.275111
0.274032
0.27299
0.271985
0.271018
0.270089
0.269199
0.268347
0.267534
0.266761
0.266026
0.265331
0.264674
0.264056
0.263477
0.262935
0.262432
0.261966
0.261536
0.261143
0.260785
0.260462
0.260173
0.259917
0.259693
0.2595
0.259338
0.259204
0.259098
0.259018
0.258964
0.258933
0.258925
0.258939
0.258972
0.259023
0.259091
0.259174
0.259271
0.25938
0.2595
0.259629
0.259765
0.259907
0.260053
0.260202
0.260352
0.260501
0.260648
0.260792
0.26093
0.261062
0.261185
0.261299
0.261401
0.26149
0.261564
0.261622
0.261663
0.261685
0.261686
0.261665
0.261621
0.261551
0.261454
0.26133
0.261176
0.26099
0.260771
0.260518
0.260229
0.259903
0.259537
0.25913
0.258681
0.258188
0.257649
0.257063
0.256427
0.255741
0.255003
0.25421
0.253361
0.252454
0.251487
0.250458
0.249367
0.24821
0.246987
0.245694
0.244332
0.242897
0.241389
0.239804
0.238142
0.236401
0.234579
0.232674
0.230684
0.228609
0.226445
0.224193
0.22185
0.219414
0.216885
0.21426
0.21154
0.208722
0.205806
0.202792
0.199677
0.196464
0.19315
0.189736
0.186223
0.18261
0.1789
0.175093
0.17119
0.167194
0.163107
0.158932
0.154673
0.150332
0.145915
0.141427
0.136873
0.132259
0.127591
0.122877
0.118124
0.11334
0.108533
0.103713
0.0988871
0.0940658
0.089259
0.0844774
0.0797362
0.075051
0.0704666
0.0659952
0.32383
0.323638
0.323387
0.323063
0.322653
0.322155
0.321575
0.320915
0.320181
0.319376
0.318503
0.317567
0.316571
0.31552
0.314417
0.313267
0.312074
0.310843
0.309577
0.308282
0.306961
0.30562
0.304264
0.302896
0.30152
0.300143
0.298767
0.297397
0.296037
0.294691
0.293361
0.292051
0.290763
0.289499
0.288262
0.287054
0.285877
0.284732
0.283622
0.282546
0.281507
0.280505
0.27954
0.278613
0.277724
0.276874
0.276063
0.27529
0.274557
0.273862
0.273206
0.27259
0.272011
0.271471
0.270969
0.270505
0.270078
0.269687
0.269332
0.269013
0.268728
0.268477
0.268259
0.268073
0.267918
0.267793
0.267697
0.267629
0.267587
0.26757
0.267577
0.267607
0.267658
0.267729
0.267817
0.267923
0.268044
0.268178
0.268325
0.268482
0.268648
0.268821
0.269
0.269183
0.269369
0.269555
0.269741
0.269925
0.270105
0.270279
0.270447
0.270606
0.270754
0.270891
0.271014
0.271122
0.271213
0.271287
0.271341
0.271373
0.271383
0.271368
0.271327
0.271259
0.271161
0.271032
0.270871
0.270675
0.270444
0.270175
0.269867
0.269518
0.269126
0.26869
0.268208
0.267678
0.267098
0.266467
0.265782
0.265042
0.264245
0.263389
0.262472
0.261492
0.260447
0.259336
0.258156
0.256905
0.255582
0.254185
0.252712
0.25116
0.249529
0.247815
0.246018
0.244134
0.242163
0.240103
0.237952
0.235707
0.233368
0.230932
0.228399
0.225766
0.223032
0.220196
0.217257
0.214214
0.211065
0.207812
0.204452
0.200985
0.197413
0.193735
0.189951
0.186063
0.182072
0.177979
0.173787
0.169499
0.165116
0.160643
0.156085
0.151445
0.146729
0.141943
0.137093
0.132186
0.127229
0.12223
0.117198
0.112142
0.10707
0.101991
0.0969168
0.0918568
0.086826
0.0818387
0.0769371
0.0721238
0.335268
0.335051
0.334772
0.334417
0.333971
0.333433
0.332809
0.332104
0.331322
0.330467
0.329544
0.328557
0.327511
0.32641
0.325258
0.324061
0.322823
0.321548
0.320242
0.318909
0.317553
0.31618
0.314794
0.313399
0.312001
0.310603
0.309209
0.307824
0.306451
0.305094
0.303756
0.302439
0.301145
0.299878
0.298638
0.297428
0.29625
0.295105
0.293994
0.292918
0.291878
0.290875
0.28991
0.288982
0.288092
0.287241
0.286428
0.285654
0.284919
0.284223
0.283566
0.282947
0.282367
0.281826
0.281323
0.280858
0.28043
0.280039
0.279685
0.279367
0.279085
0.278837
0.278623
0.278442
0.278293
0.278175
0.278088
0.278029
0.277998
0.277994
0.278015
0.278061
0.278129
0.278218
0.278327
0.278454
0.278599
0.278758
0.278932
0.279117
0.279314
0.279519
0.279732
0.27995
0.280173
0.280398
0.280625
0.28085
0.281073
0.281293
0.281506
0.281713
0.28191
0.282098
0.282272
0.282434
0.282579
0.282708
0.282818
0.282908
0.282976
0.28302
0.283039
0.283031
0.282995
0.282928
0.282829
0.282695
0.282527
0.282321
0.282076
0.281789
0.28146
0.281087
0.280667
0.280198
0.27968
0.279109
0.278484
0.277803
0.277064
0.276264
0.275402
0.274476
0.273484
0.272423
0.271292
0.270088
0.26881
0.267455
0.266022
0.264508
0.262911
0.261229
0.25946
0.257602
0.255653
0.253611
0.251474
0.24924
0.246907
0.244473
0.241936
0.239295
0.236548
0.233693
0.230729
0.227656
0.224471
0.221173
0.217763
0.21424
0.210603
0.206851
0.202987
0.199009
0.19492
0.190719
0.18641
0.181994
0.177473
0.172852
0.168133
0.163322
0.158422
0.15344
0.148382
0.143255
0.138065
0.13282
0.127529
0.122201
0.116844
0.111468
0.106083
0.1007
0.0953336
0.0899964
0.0847294
0.0795264
0.348747
0.348506
0.348198
0.34781
0.347325
0.346746
0.346076
0.345323
0.34449
0.343582
0.342606
0.341565
0.340466
0.339311
0.338108
0.336861
0.335574
0.334253
0.332903
0.331529
0.330135
0.328727
0.327308
0.325885
0.32446
0.323039
0.321625
0.320221
0.318833
0.317462
0.316111
0.314784
0.313481
0.312206
0.310959
0.309744
0.30856
0.30741
0.306294
0.305214
0.30417
0.303162
0.302192
0.30126
0.300365
0.299509
0.298691
0.297912
0.297171
0.29647
0.295807
0.295183
0.294598
0.294051
0.293544
0.293074
0.292642
0.292248
0.291891
0.291571
0.291287
0.291038
0.290825
0.290645
0.290499
0.290385
0.290303
0.29025
0.290227
0.290233
0.290265
0.290322
0.290404
0.290509
0.290636
0.290782
0.290947
0.29113
0.291328
0.291539
0.291764
0.291999
0.292244
0.292496
0.292754
0.293016
0.293281
0.293547
0.293813
0.294076
0.294335
0.294589
0.294835
0.295072
0.295299
0.295513
0.295713
0.295897
0.296064
0.296212
0.296339
0.296444
0.296524
0.296578
0.296604
0.2966
0.296565
0.296496
0.296392
0.296251
0.296071
0.29585
0.295587
0.295279
0.294924
0.29452
0.294066
0.293559
0.292997
0.292378
0.2917
0.29096
0.290158
0.289289
0.288353
0.287346
0.286268
0.285115
0.283885
0.282577
0.281187
0.279714
0.278155
0.276509
0.274772
0.272943
0.271019
0.268998
0.266878
0.264657
0.262333
0.259903
0.257365
0.254717
0.251958
0.249085
0.246098
0.242994
0.239771
0.23643
0.232968
0.229385
0.22568
0.221853
0.217903
0.21383
0.209636
0.205321
0.200886
0.196332
0.191663
0.186881
0.181989
0.176991
0.171892
0.166696
0.16141
0.15604
0.150593
0.145076
0.139498
0.133867
0.128193
0.122485
0.116752
0.111007
0.105263
0.0995331
0.0938574
0.0882211
0.364352
0.364086
0.363748
0.363324
0.362799
0.362176
0.361459
0.360655
0.359769
0.358807
0.357775
0.356678
0.355522
0.354313
0.353055
0.351754
0.350416
0.349046
0.347649
0.346231
0.344796
0.343349
0.341895
0.340439
0.338985
0.337537
0.336098
0.334673
0.333264
0.331875
0.330508
0.329165
0.327849
0.326561
0.325303
0.324076
0.322882
0.321722
0.320597
0.319507
0.318453
0.317437
0.316457
0.315515
0.31461
0.313744
0.312916
0.312127
0.311376
0.310664
0.309991
0.309357
0.308761
0.308205
0.307687
0.307208
0.306767
0.306364
0.305999
0.305672
0.305381
0.305127
0.304908
0.304725
0.304576
0.30446
0.304377
0.304326
0.304306
0.304315
0.304352
0.304416
0.304507
0.304622
0.30476
0.304921
0.305101
0.305301
0.305518
0.305751
0.305998
0.306258
0.306529
0.306809
0.307098
0.307392
0.307691
0.307993
0.308296
0.308599
0.3089
0.309196
0.309487
0.309771
0.310045
0.310309
0.31056
0.310797
0.311018
0.311221
0.311404
0.311567
0.311705
0.311819
0.311906
0.311963
0.311991
0.311985
0.311945
0.311868
0.311753
0.311597
0.311398
0.311155
0.310865
0.310527
0.310137
0.309694
0.309196
0.308641
0.308025
0.307347
0.306605
0.305795
0.304917
0.303967
0.302943
0.301843
0.300664
0.299404
0.298061
0.296632
0.295114
0.293506
0.291804
0.290007
0.288111
0.286115
0.284016
0.281811
0.279498
0.277074
0.274538
0.271887
0.269118
0.26623
0.263221
0.260088
0.256831
0.253446
0.249934
0.246292
0.242519
0.238615
0.234579
0.230411
0.22611
0.221676
0.217112
0.212417
0.207593
0.202643
0.197569
0.192375
0.187065
0.181643
0.176115
0.170486
0.164764
0.158955
0.153068
0.14711
0.141092
0.135023
0.128912
0.122771
0.116615
0.110454
0.104332
0.098223
0.382182
0.38189
0.381519
0.381057
0.38049
0.37982
0.379054
0.378197
0.377256
0.376238
0.375148
0.373992
0.372777
0.371509
0.370193
0.368836
0.367444
0.366021
0.364575
0.363109
0.361629
0.36014
0.358647
0.357154
0.355666
0.354186
0.352718
0.351266
0.349832
0.34842
0.347031
0.345668
0.344332
0.343026
0.34175
0.340507
0.339297
0.338121
0.33698
0.335874
0.334805
0.333773
0.332777
0.331819
0.330899
0.330017
0.329173
0.328367
0.3276
0.326871
0.326181
0.32553
0.324918
0.324345
0.323811
0.323316
0.32286
0.322442
0.322062
0.32172
0.321416
0.321148
0.320918
0.320723
0.320564
0.320439
0.320348
0.32029
0.320264
0.320269
0.320304
0.320367
0.320458
0.320575
0.320717
0.320882
0.32107
0.321278
0.321506
0.321751
0.322012
0.322288
0.322578
0.322878
0.323188
0.323507
0.323832
0.324161
0.324494
0.324828
0.325162
0.325494
0.325822
0.326144
0.32646
0.326766
0.327061
0.327343
0.327611
0.327863
0.328097
0.32831
0.328502
0.32867
0.328812
0.328926
0.32901
0.329063
0.329082
0.329065
0.329011
0.328916
0.328779
0.328598
0.32837
0.328094
0.327766
0.327386
0.32695
0.326456
0.325901
0.325284
0.324601
0.32385
0.32303
0.322136
0.321167
0.320121
0.318994
0.317784
0.316488
0.315104
0.31363
0.312062
0.310397
0.308634
0.30677
0.304801
0.302725
0.300539
0.298241
0.295828
0.293297
0.290645
0.287871
0.284971
0.281944
0.278787
0.275498
0.272074
0.268515
0.264818
0.260981
0.257003
0.252884
0.248621
0.244215
0.239665
0.234971
0.230135
0.225156
0.220036
0.214778
0.209385
0.203858
0.198204
0.192425
0.186528
0.180519
0.174405
0.168193
0.161892
0.15551
0.149056
0.142543
0.135979
0.129381
0.122759
0.116157
0.109542
0.402353
0.402033
0.401626
0.401123
0.40051
0.39979
0.398971
0.398058
0.39706
0.395981
0.394829
0.393612
0.392334
0.391004
0.389627
0.38821
0.386759
0.38528
0.383779
0.382261
0.380731
0.379196
0.377658
0.376124
0.374596
0.373079
0.371577
0.370091
0.368627
0.367184
0.365767
0.364377
0.363016
0.361684
0.360385
0.359118
0.357884
0.356685
0.355521
0.354393
0.353301
0.352246
0.351228
0.350247
0.349303
0.348398
0.34753
0.346701
0.345909
0.345157
0.344443
0.343768
0.343131
0.342534
0.341976
0.341456
0.340975
0.340534
0.34013
0.339765
0.339438
0.339149
0.338897
0.338682
0.338502
0.338359
0.338249
0.338174
0.338132
0.338122
0.338143
0.338194
0.338274
0.338382
0.338516
0.338675
0.338858
0.339063
0.33929
0.339536
0.339799
0.34008
0.340375
0.340684
0.341004
0.341334
0.341673
0.342018
0.342369
0.342723
0.343078
0.343434
0.343788
0.344138
0.344482
0.34482
0.345148
0.345466
0.345771
0.346061
0.346335
0.34659
0.346825
0.347038
0.347226
0.347388
0.347521
0.347624
0.347694
0.34773
0.347728
0.347688
0.347606
0.34748
0.347309
0.347089
0.346819
0.346495
0.346117
0.34568
0.345183
0.344622
0.343996
0.343302
0.342536
0.341697
0.340782
0.339788
0.338711
0.337551
0.336303
0.334965
0.333534
0.332007
0.330382
0.328655
0.326823
0.324884
0.322834
0.320671
0.318391
0.315992
0.313471
0.310824
0.308049
0.305143
0.302103
0.298927
0.295612
0.292155
0.288554
0.284808
0.280913
0.276867
0.27267
0.26832
0.263814
0.259153
0.254336
0.249362
0.244232
0.238947
0.233507
0.227916
0.222174
0.216286
0.210256
0.204088
0.197788
0.191362
0.184816
0.17816
0.171402
0.16455
0.157616
0.15061
0.143548
0.13644
0.129331
0.122181
0.424994
0.424643
0.424197
0.423647
0.422984
0.42221
0.421333
0.42036
0.419297
0.418154
0.416935
0.41565
0.414305
0.412907
0.411463
0.409981
0.408466
0.406924
0.405363
0.403787
0.402202
0.400614
0.399026
0.397443
0.395869
0.394308
0.392764
0.391239
0.389735
0.388256
0.386803
0.385379
0.383984
0.38262
0.381288
0.379989
0.378725
0.377495
0.3763
0.375141
0.374018
0.372932
0.371882
0.37087
0.369895
0.368957
0.368057
0.367195
0.366371
0.365586
0.364838
0.364129
0.363459
0.362828
0.362235
0.361681
0.361166
0.36069
0.360252
0.359853
0.359492
0.35917
0.358884
0.358636
0.358425
0.358249
0.358109
0.358004
0.357933
0.357894
0.357888
0.357913
0.357968
0.358051
0.358163
0.358301
0.358465
0.358652
0.358862
0.359093
0.359344
0.359613
0.359898
0.360199
0.360514
0.360841
0.361178
0.361524
0.361876
0.362235
0.362597
0.362961
0.363325
0.363688
0.364047
0.364401
0.364749
0.365087
0.365415
0.36573
0.36603
0.366314
0.366579
0.366824
0.367046
0.367243
0.367414
0.367555
0.367666
0.367742
0.367784
0.367787
0.36775
0.367671
0.367547
0.367375
0.367154
0.36688
0.366551
0.366165
0.365719
0.365209
0.364634
0.363991
0.363276
0.362488
0.361622
0.360677
0.359649
0.358536
0.357334
0.356041
0.354653
0.353168
0.351581
0.349891
0.348094
0.346187
0.344167
0.342029
0.339771
0.337391
0.334883
0.332246
0.329475
0.326569
0.323523
0.320334
0.317001
0.313518
0.309885
0.306097
0.302152
0.298048
0.293783
0.289353
0.284758
0.279995
0.275064
0.269962
0.26469
0.259247
0.253634
0.247852
0.241902
0.235787
0.22951
0.223075
0.216485
0.209748
0.202868
0.195854
0.188714
0.181456
0.174091
0.166631
0.159089
0.151477
0.143842
0.136133
0.45025
0.449863
0.449372
0.448771
0.44805
0.447215
0.446273
0.445231
0.444097
0.44288
0.441587
0.440226
0.438805
0.437331
0.435813
0.434256
0.432669
0.431058
0.429428
0.427787
0.426139
0.424489
0.422842
0.421203
0.419575
0.417962
0.416368
0.414794
0.413244
0.411719
0.410222
0.408755
0.407317
0.405912
0.404539
0.4032
0.401894
0.400624
0.399389
0.39819
0.397026
0.395899
0.394809
0.393755
0.392739
0.391759
0.390817
0.389912
0.389044
0.388215
0.387423
0.386669
0.385954
0.385277
0.384638
0.384038
0.383476
0.382953
0.382468
0.382021
0.381613
0.381242
0.380909
0.380614
0.380355
0.380133
0.379946
0.379795
0.379678
0.379595
0.379544
0.379526
0.379538
0.379581
0.379652
0.379751
0.379877
0.380027
0.380202
0.3804
0.380619
0.380858
0.381115
0.381389
0.381679
0.381983
0.382299
0.382627
0.382963
0.383307
0.383656
0.38401
0.384366
0.384723
0.385079
0.385432
0.38578
0.386122
0.386455
0.386777
0.387087
0.387383
0.387662
0.387923
0.388163
0.38838
0.388573
0.388738
0.388874
0.388979
0.389049
0.389084
0.389079
0.389034
0.388945
0.388811
0.388627
0.388393
0.388104
0.387759
0.387354
0.386888
0.386356
0.385756
0.385086
0.384342
0.383521
0.38262
0.381636
0.380567
0.379408
0.378157
0.37681
0.375365
0.373818
0.372165
0.370403
0.368529
0.366539
0.36443
0.362198
0.359839
0.357351
0.354728
0.351969
0.349068
0.346023
0.342831
0.339487
0.335988
0.332331
0.328512
0.324529
0.320378
0.316055
0.311559
0.306887
0.302035
0.297002
0.291786
0.286385
0.280798
0.275025
0.269066
0.26292
0.25659
0.250077
0.243384
0.236514
0.229473
0.222265
0.214898
0.207378
0.199714
0.191916
0.183995
0.175967
0.167841
0.159666
0.151382
0.478281
0.477854
0.477311
0.476648
0.475861
0.474953
0.473934
0.472811
0.471594
0.47029
0.46891
0.46746
0.465951
0.464389
0.462784
0.461142
0.459472
0.457779
0.456071
0.454353
0.452631
0.45091
0.449195
0.44749
0.445798
0.444124
0.442469
0.440837
0.43923
0.437651
0.436099
0.434578
0.433089
0.431631
0.430207
0.428817
0.427461
0.42614
0.424854
0.423603
0.422389
0.42121
0.420067
0.418961
0.417891
0.416857
0.41586
0.4149
0.413977
0.413091
0.412242
0.41143
0.410656
0.409919
0.40922
0.408558
0.407935
0.407349
0.406801
0.406292
0.405819
0.405384
0.404987
0.404627
0.404303
0.404015
0.403764
0.403547
0.403366
0.403218
0.403103
0.403021
0.402971
0.402951
0.402961
0.403
0.403066
0.403159
0.403277
0.403419
0.403584
0.403771
0.403977
0.404203
0.404446
0.404705
0.404978
0.405264
0.405561
0.405868
0.406184
0.406506
0.406832
0.407162
0.407493
0.407823
0.408151
0.408475
0.408793
0.409103
0.409402
0.40969
0.409964
0.410222
0.410461
0.410681
0.410877
0.411049
0.411194
0.411309
0.411393
0.411443
0.411456
0.41143
0.411362
0.41125
0.411092
0.410883
0.410623
0.410307
0.409934
0.409499
0.409001
0.408436
0.407801
0.407094
0.40631
0.405446
0.404501
0.403469
0.402349
0.401136
0.399828
0.39842
0.39691
0.395293
0.393567
0.391726
0.389769
0.38769
0.385486
0.383154
0.380688
0.378086
0.375343
0.372456
0.36942
0.366231
0.362886
0.359381
0.355712
0.351874
0.347865
0.34368
0.339315
0.334767
0.330032
0.325107
0.31999
0.314676
0.309163
0.30345
0.297535
0.291415
0.285092
0.278564
0.271832
0.264898
0.257764
0.250433
0.24291
0.235201
0.227311
0.219248
0.211023
0.202645
0.19413
0.185487
0.176766
0.167899
0.509268
0.508793
0.508187
0.50745
0.506581
0.505584
0.50447
0.503247
0.501927
0.500518
0.49903
0.497474
0.495857
0.49419
0.492481
0.490738
0.488968
0.48718
0.485379
0.483571
0.481762
0.479957
0.478161
0.476378
0.47461
0.472862
0.471137
0.469435
0.46776
0.466114
0.464497
0.462912
0.461358
0.459837
0.45835
0.456897
0.455478
0.454094
0.452745
0.451431
0.450152
0.448908
0.4477
0.446528
0.445391
0.444289
0.443223
0.442194
0.4412
0.440241
0.43932
0.438434
0.437584
0.436772
0.435995
0.435256
0.434553
0.433887
0.433257
0.432665
0.43211
0.431591
0.431109
0.430663
0.430254
0.42988
0.429541
0.429238
0.428969
0.428734
0.428533
0.428364
0.428227
0.428122
0.428046
0.428
0.427983
0.427993
0.42803
0.428092
0.428178
0.428288
0.428419
0.42857
0.428741
0.42893
0.429135
0.429356
0.429589
0.429835
0.430092
0.430357
0.43063
0.430908
0.43119
0.431474
0.431759
0.432042
0.432322
0.432596
0.432863
0.433121
0.433368
0.433601
0.43382
0.43402
0.434201
0.434359
0.434493
0.434601
0.434679
0.434726
0.434739
0.434715
0.434652
0.434548
0.434398
0.434202
0.433955
0.433656
0.4333
0.432886
0.432409
0.431868
0.431258
0.430577
0.429821
0.428987
0.428072
0.427072
0.425984
0.424804
0.423529
0.422155
0.420679
0.419097
0.417404
0.415597
0.413672
0.411625
0.409452
0.407149
0.40471
0.402133
0.399413
0.396546
0.393527
0.390351
0.387015
0.383515
0.379845
0.376001
0.371979
0.367774
0.363383
0.358799
0.35402
0.349041
0.343857
0.338466
0.332862
0.327044
0.321008
0.314751
0.308271
0.301568
0.294639
0.287486
0.280109
0.27251
0.264691
0.256658
0.248415
0.23997
0.23133
0.222506
0.213512
0.204357
0.195092
0.18564
0.5445
0.543961
0.543272
0.542437
0.541457
0.540339
0.539096
0.537738
0.536278
0.534728
0.533098
0.531399
0.529643
0.527839
0.525996
0.524123
0.522228
0.520318
0.518399
0.516479
0.514561
0.512652
0.510755
0.508873
0.507011
0.505171
0.503355
0.501566
0.499805
0.498073
0.496373
0.494705
0.493069
0.491466
0.489897
0.488362
0.486861
0.485394
0.483962
0.482564
0.481201
0.479872
0.478578
0.477318
0.476092
0.474901
0.473744
0.472621
0.471533
0.47048
0.469461
0.468476
0.467527
0.466613
0.465733
0.464889
0.46408
0.463306
0.462568
0.461866
0.461198
0.460567
0.459971
0.45941
0.458885
0.458394
0.457938
0.457517
0.45713