/*--------------------------------*- C++ -*----------------------------------*\
  =========                 |
  \\      /  F ield         | OpenFOAM: The Open Source CFD Toolbox
   \\    /   O peration     | Website:  https://openfoam.org
    \\  /    A nd           | Version:  7
     \\/     M anipulation  |
\*---------------------------------------------------------------------------*/
FoamFile
{
    version     2.0;
    format      ascii;
    class       volScalarField;
    location    "0.025";
    object      T;
}
// * * * * * * * * * * * * * * * * * * * * * * * * * * * * * * * * * * * * * //

dimensions      [0 0 0 1 0 0 0];

internalField   nonuniform List<scalar> 
12225
(
1.00689
1.0041
1.00171
1.00089
1.00043
1.00012
0.999963
0.999896
0.999862
0.999835
0.999805
0.999738
0.999578
0.999165
0.998125
0.995585
0.989062
0.972971
0.995136
0.994812
0.996745
0.998334
0.999127
0.999464
0.999644
0.999762
0.999835
0.999871
0.999874
0.999833
0.999688
0.999297
0.9983
0.995883
0.989915
0.975786
0.999619
1.00005
1.00023
1.00028
1.0002
1.00008
0.999991
0.999951
0.99993
0.999909
0.999878
0.999815
0.999662
0.999284
0.99835
0.996134
0.990921
0.979588
1.00032
1.00017
0.999777
0.999749
0.999819
0.999835
0.999837
0.99985
0.999861
0.999863
0.999849
0.999801
0.999667
0.999324
0.998485
0.996537
0.992187
0.983395
1.00014
0.999947
0.999658
0.999701
0.999818
0.999857
0.999862
0.99987
0.999879
0.999879
0.999865
0.999819
0.999694
0.999385
0.998647
0.996989
0.993473
0.986811
1.00002
0.999951
0.999769
0.999773
0.999847
0.999872
0.999872
0.999876
0.999882
0.999882
0.999868
0.999826
0.999715
0.999444
0.998815
0.997448
0.994686
0.989724
0.999995
1
0.999864
0.999822
0.999858
0.999877
0.999879
0.999882
0.999886
0.999886
0.999875
0.999837
0.99974
0.999509
0.998988
0.997894
0.995777
0.992133
0.999995
1.00002
0.999917
0.999858
0.999872
0.999888
0.999889
0.999891
0.999894
0.999893
0.999883
0.99985
0.999768
0.999576
0.999156
0.998304
0.996718
0.994078
0.999995
1.00002
0.999951
0.999894
0.999893
0.999902
0.999902
0.999902
0.999903
0.999902
0.999893
0.999864
0.999796
0.999641
0.999313
0.998667
0.997504
0.995617
0.999995
1.00002
0.999976
0.999926
0.999916
0.999918
0.999916
0.999915
0.999915
0.999912
0.999903
0.999879
0.999824
0.999703
0.999452
0.998976
0.99814
0.996813
0.999996
1.00002
0.999992
0.999953
0.999938
0.999934
0.999931
0.999927
0.999926
0.999923
0.999915
0.999895
0.999852
0.999759
0.999573
0.99923
0.998643
0.997726
0.999997
1.00001
1
0.999971
0.999954
0.999949
0.999944
0.99994
0.999937
0.999933
0.999926
0.99991
0.999876
0.999805
0.999667
0.999417
0.998998
0.998351
0.999997
1.00001
1.00001
0.999984
0.999968
0.999962
0.999957
0.999952
0.999947
0.999943
0.999938
0.999925
0.999897
0.999845
0.999745
0.999566
0.999273
0.998827
0.999997
1.00001
1.00001
0.999993
0.999981
0.999974
0.999968
0.999964
0.99996
0.999955
0.99995
0.99994
0.99992
0.999883
0.999816
0.999697
0.999507
0.99922
0.999998
1.00001
1.00001
1
0.999991
0.999985
0.999981
0.999977
0.999972
0.999967
0.999962
0.999955
0.999942
0.999919
0.999875
0.999803
0.99969
0.999522
0.999998
1.00001
1.00001
1
0.999998
0.999994
0.999991
0.999988
0.999983
0.999979
0.999974
0.99997
0.999962
0.999948
0.999922
0.999882
0.999821
0.999731
0.999998
1.00001
1.00001
1.00001
1
0.999999
0.999998
0.999996
0.999992
0.999989
0.999984
0.99998
0.999976
0.999969
0.999956
0.999935
0.999906
0.999864
0.999999
1.00001
1.00001
1.00001
1
1
1
0.999998
0.999995
0.999993
0.999992
0.999991
0.999986
0.999981
0.999975
0.999967
0.999955
0.999937
1
1.00001
1.00001
1.00001
1
1
1
0.999999
0.999998
0.999996
0.999994
0.999992
0.999989
0.999987
0.999985
0.999981
0.999975
0.999968
0.999999
1.00001
1.00001
1.00001
1.00001
1
0.999998
0.999996
0.999993
0.999991
0.999989
0.999987
0.999985
0.999982
0.99998
0.999977
0.999974
0.999971
0.999997
1.00001
1.00001
1.00001
1
0.999998
0.999993
0.999988
0.999985
0.999982
0.999979
0.999976
0.999973
0.999972
0.99997
0.999968
0.999967
0.999964
0.999997
1.00001
1.00002
1.00001
0.999995
0.999988
0.999982
0.999975
0.999969
0.999965
0.999964
0.999963
0.99996
0.999959
0.999958
0.999958
0.999956
0.999954
0.999996
1.00003
1.00003
0.999996
0.999972
0.999966
0.999961
0.999956
0.999952
0.999949
0.999948
0.999947
0.999946
0.999945
0.999945
0.999944
0.999944
0.999944
0.999989
1.00005
1.00004
0.999983
0.999948
0.999938
0.999932
0.999929
0.999929
0.999931
0.999932
0.999933
0.999932
0.999933
0.999934
0.999934
0.999935
0.999935
0.99999
1.00004
0.999992
0.999937
0.999931
0.999929
0.999917
0.999909
0.999908
0.99991
0.999912
0.999915
0.999917
0.999918
0.999919
0.999921
0.999923
0.999925
1.00013
1.00009
0.999825
0.999756
0.999837
0.999896
0.999909
0.999912
0.999916
0.999918
0.99992
0.999921
0.999922
0.999922
0.999923
0.999924
0.999925
0.999925
1.0005
1.00053
0.999952
0.999665
0.999667
0.999718
0.999754
0.999789
0.99982
0.999844
0.999861
0.999875
0.999885
0.999893
0.9999
0.999905
0.999909
0.999915
1.00004
1.0008
1.00096
1.0008
1.00056
1.00034
1.00018
1.00009
1.00003
0.999996
0.99997
0.999954
0.999943
0.999935
0.99993
0.999925
0.999921
0.999921
0.994604
0.993791
0.995838
0.997661
0.998662
0.999144
0.999416
0.999594
0.99971
0.999782
0.999829
0.999863
0.999887
0.999905
0.999918
0.999928
0.999933
0.99993
1.00635
1.00419
1.00178
1.00096
1.00054
1.00023
1.00005
0.999977
0.999939
0.999915
0.9999
0.999891
0.999888
0.999886
0.999885
0.999886
0.999888
0.999899
0.23235
0.23228
0.232122
0.231884
0.231573
0.231186
0.230723
0.230187
0.229579
0.228901
0.228155
0.227344
0.226468
0.225532
0.224537
0.223488
0.222386
0.221237
0.220042
0.218808
0.217536
0.216233
0.214901
0.213544
0.212168
0.210776
0.209372
0.207958
0.206539
0.205118
0.203703
0.202302
0.200941
0.199656
0.198382
0.197071
0.195778
0.194492
0.193219
0.191964
0.190722
0.189515
0.188355
0.187212
0.186102
0.185037
0.184
0.182995
0.182021
0.181077
0.180164
0.17928
0.178426
0.177601
0.176805
0.176036
0.175294
0.174578
0.173889
0.173224
0.172584
0.171966
0.171372
0.170798
0.170245
0.169712
0.169197
0.168699
0.168217
0.16775
0.167297
0.166856
0.166426
0.166005
0.165593
0.165189
0.164789
0.164395
0.164002
0.163612
0.163222
0.16283
0.162435
0.162037
0.161633
0.161222
0.160802
0.160373
0.159933
0.159481
0.159015
0.158534
0.158036
0.157521
0.156986
0.156431
0.155853
0.155252
0.154627
0.153976
0.153299
0.152594
0.15186
0.151095
0.150298
0.149468
0.148604
0.147705
0.146768
0.145794
0.144781
0.143728
0.142634
0.141497
0.140317
0.139093
0.137823
0.136506
0.135142
0.13373
0.132269
0.130757
0.129195
0.12758
0.125914
0.124195
0.122423
0.120597
0.118717
0.116783
0.114796
0.112754
0.110659
0.10851
0.106309
0.104056
0.101752
0.0993987
0.0969966
0.0945476
0.0920538
0.0895172
0.0869401
0.0843253
0.0816757
0.0789947
0.0762859
0.0735533
0.0708011
0.0680339
0.0652566
0.0624745
0.0596931
0.0569181
0.0541555
0.0514117
0.0486929
0.0460057
0.0433566
0.0407524
0.0381996
0.0357047
0.0332735
0.0309118
0.0286257
0.0264211
0.024303
0.0222757
0.0203428
0.0185074
0.0167715
0.0151368
0.0136039
0.0121729
0.010843
0.009613
0.0084817
0.00744723
0.00651532
0.00568565
0.234356
0.234276
0.23412
0.233883
0.233568
0.233177
0.23271
0.232168
0.231551
0.230863
0.230104
0.229279
0.22839
0.22744
0.226432
0.22537
0.224257
0.223097
0.221894
0.220651
0.219373
0.218064
0.216729
0.215373
0.213999
0.212614
0.211222
0.209828
0.208437
0.207052
0.205674
0.204302
0.202934
0.201523
0.200095
0.198726
0.197395
0.196102
0.194843
0.193612
0.192416
0.191244
0.190086
0.188965
0.187882
0.186821
0.185789
0.184786
0.183815
0.182874
0.181963
0.181082
0.180231
0.179409
0.178615
0.177849
0.17711
0.176398
0.175712
0.175051
0.174414
0.173801
0.17321
0.172641
0.172092
0.171563
0.171053
0.17056
0.170083
0.169621
0.169174
0.168738
0.168315
0.167901
0.167496
0.167098
0.166706
0.166318
0.165934
0.165552
0.16517
0.164787
0.164401
0.164012
0.163617
0.163215
0.162806
0.162387
0.161957
0.161515
0.161059
0.160588
0.160101
0.159596
0.159072
0.158528
0.157962
0.157374
0.156761
0.156123
0.155457
0.154762
0.154038
0.153284
0.152498
0.151678
0.150824
0.149934
0.149007
0.148042
0.147038
0.145993
0.144906
0.143777
0.142604
0.141386
0.140122
0.138811
0.137451
0.136043
0.134585
0.133075
0.131514
0.129901
0.128234
0.126513
0.124738
0.122909
0.121024
0.119084
0.117089
0.115039
0.112934
0.110774
0.10856
0.106292
0.103971
0.101599
0.0991773
0.0967065
0.094189
0.0916266
0.0890219
0.0863774
0.083696
0.080981
0.0782362
0.0754653
0.0726728
0.0698632
0.0670414
0.0642127
0.0613827
0.0585573
0.0557424
0.0529445
0.05017
0.0474257
0.0447184
0.0420547
0.0394416
0.0368857
0.0343936
0.0319717
0.0296261
0.027362
0.0251847
0.0230988
0.0211082
0.0192161
0.0174251
0.0157369
0.0141524
0.0126718
0.0112947
0.0100198
0.00884599
0.00777164
0.00680088
0.00593445
0.238423
0.23832
0.238144
0.237889
0.237554
0.237139
0.236646
0.236077
0.235434
0.234718
0.233934
0.233083
0.232168
0.231193
0.23016
0.229075
0.227939
0.226757
0.225533
0.22427
0.222974
0.221649
0.220298
0.218926
0.217538
0.216138
0.21473
0.213316
0.211901
0.210487
0.209077
0.207675
0.206287
0.204909
0.203545
0.202203
0.200885
0.199593
0.19833
0.197097
0.195898
0.194732
0.193595
0.192488
0.191408
0.190355
0.189331
0.188337
0.187373
0.186439
0.185535
0.184661
0.183816
0.183
0.182212
0.181453
0.18072
0.180015
0.179335
0.178681
0.178052
0.177446
0.176864
0.176303
0.175763
0.175244
0.174743
0.174261
0.173795
0.173345
0.172909
0.172487
0.172076
0.171676
0.171286
0.170903
0.170527
0.170156
0.169788
0.169423
0.169059
0.168695
0.168329
0.167959
0.167584
0.167204
0.166815
0.166418
0.16601
0.16559
0.165157
0.164709
0.164246
0.163764
0.163264
0.162744
0.162201
0.161636
0.161047
0.160432
0.15979
0.159119
0.158419
0.157688
0.156925
0.156128
0.155296
0.154428
0.153522
0.152578
0.151593
0.150568
0.1495
0.148388
0.147231
0.146028
0.144778
0.14348
0.142132
0.140733
0.139283
0.137781
0.136225
0.134614
0.132948
0.131227
0.129449
0.127614
0.125721
0.123771
0.121762
0.119696
0.117572
0.11539
0.11315
0.110854
0.108501
0.106094
0.103632
0.101118
0.0985534
0.0959398
0.0932797
0.0905756
0.0878303
0.0850472
0.0822297
0.0793818
0.0765079
0.0736124
0.0707004
0.0677773
0.0648487
0.0619207
0.0589994
0.0560916
0.0532039
0.0503433
0.0475169
0.0447321
0.0419959
0.0393156
0.0366982
0.0341508
0.0316797
0.0292908
0.0269899
0.024782
0.0226716
0.0206625
0.0187576
0.0169592
0.0152687
0.0136866
0.0122126
0.0108459
0.00958534
0.00842932
0.00738086
0.00643986
0.244518
0.244388
0.244186
0.243905
0.243542
0.243095
0.242567
0.241962
0.241283
0.240531
0.23971
0.238822
0.237872
0.236862
0.235795
0.234676
0.233509
0.232297
0.231044
0.229755
0.228433
0.227084
0.225711
0.22432
0.222913
0.221496
0.220072
0.218644
0.217218
0.215795
0.214381
0.21298
0.211593
0.210221
0.208867
0.207535
0.206227
0.204944
0.203687
0.202459
0.201261
0.200092
0.198954
0.197846
0.196769
0.195721
0.194703
0.193716
0.192758
0.191831
0.190934
0.190066
0.189228
0.188419
0.187638
0.186886
0.186161
0.185463
0.184792
0.184147
0.183527
0.182931
0.182359
0.181809
0.181281
0.180774
0.180287
0.179819
0.179368
0.178934
0.178515
0.17811
0.177718
0.177337
0.176967
0.176605
0.176251
0.175903
0.17556
0.17522
0.174881
0.174543
0.174204
0.173863
0.173517
0.173167
0.172809
0.172442
0.172066
0.171679
0.171279
0.170864
0.170434
0.169987
0.169521
0.169036
0.168529
0.167998
0.167444
0.166864
0.166257
0.165621
0.164956
0.164259
0.16353
0.162766
0.161967
0.161131
0.160257
0.159343
0.158388
0.157391
0.15635
0.155264
0.154131
0.152951
0.151722
0.150443
0.149112
0.147729
0.146292
0.1448
0.143251
0.141646
0.139982
0.13826
0.136478
0.134635
0.132732
0.130767
0.12874
0.12665
0.124499
0.122285
0.120009
0.117671
0.115273
0.112813
0.110295
0.107718
0.105085
0.102396
0.0996554
0.0968642
0.0940255
0.0911424
0.0882183
0.0852573
0.0822636
0.0792417
0.0761969
0.0731344
0.0700602
0.0669805
0.0639018
0.0608309
0.0577752
0.0547419
0.0517387
0.0487734
0.0458537
0.0429876
0.0401829
0.037447
0.0347874
0.0322109
0.0297238
0.0273322
0.0250414
0.0228558
0.0207792
0.0188146
0.0169639
0.0152283
0.0136079
0.0121023
0.0107105
0.00943092
0.00826587
0.00721387
0.252661
0.252501
0.252271
0.251961
0.251564
0.25108
0.250512
0.249865
0.249142
0.248345
0.247479
0.246546
0.245551
0.244497
0.243388
0.242227
0.24102
0.23977
0.23848
0.237157
0.235804
0.234425
0.233025
0.231609
0.23018
0.228742
0.227301
0.22586
0.224422
0.222992
0.221572
0.220167
0.218778
0.217406
0.216055
0.214727
0.213423
0.212145
0.210894
0.209672
0.208478
0.207314
0.20618
0.205077
0.204004
0.202961
0.201949
0.200967
0.200015
0.199094
0.198203
0.197342
0.19651
0.195708
0.194935
0.19419
0.193473
0.192784
0.192122
0.191487
0.190877
0.190293
0.189733
0.189196
0.188682
0.18819
0.187719
0.187267
0.186834
0.186419
0.18602
0.185636
0.185266
0.184909
0.184564
0.184228
0.183901
0.183582
0.183268
0.182959
0.182652
0.182347
0.182042
0.181736
0.181426
0.181112
0.180792
0.180464
0.180128
0.179781
0.179422
0.179049
0.178661
0.178256
0.177834
0.177391
0.176928
0.176442
0.175931
0.175395
0.174832
0.174241
0.173619
0.172965
0.172278
0.171557
0.170799
0.170004
0.169169
0.168294
0.167376
0.166415
0.165409
0.164355
0.163254
0.162103
0.160901
0.159646
0.158337
0.156973
0.155553
0.154074
0.152536
0.150937
0.149277
0.147554
0.145767
0.143915
0.141998
0.140014
0.137964
0.135846
0.13366
0.131406
0.129084
0.126694
0.124236
0.121711
0.11912
0.116463
0.113742
0.110958
0.108113
0.10521
0.102251
0.0992395
0.0961781
0.093071
0.0899224
0.0867369
0.0835197
0.0802762
0.0770126
0.0737353
0.0704511
0.0671674
0.0638916
0.0606319
0.0573965
0.0541937
0.0510324
0.0479211
0.0448685
0.0418834
0.0389738
0.036148
0.0334134
0.030777
0.0282453
0.0258239
0.0235175
0.02133
0.0192643
0.0173224
0.015505
0.0138122
0.0122434
0.0107973
0.00947579
0.0082758
0.262886
0.262698
0.262438
0.262096
0.261662
0.261137
0.260525
0.25983
0.259058
0.25821
0.257292
0.256308
0.255261
0.254156
0.252998
0.251789
0.250535
0.249241
0.24791
0.246547
0.245156
0.243744
0.242313
0.240868
0.239414
0.237954
0.236494
0.235037
0.233586
0.232145
0.230718
0.229306
0.227912
0.226539
0.225187
0.223859
0.222557
0.221281
0.220033
0.218814
0.217624
0.216464
0.215334
0.214235
0.213165
0.212127
0.211119
0.210141
0.209194
0.208278
0.207392
0.206536
0.20571
0.204914
0.204147
0.203409
0.2027
0.202019
0.201366
0.20074
0.200141
0.199568
0.19902
0.198497
0.197998
0.197521
0.197067
0.196633
0.19622
0.195825
0.195448
0.195088
0.194743
0.194412
0.194094
0.193787
0.193491
0.193203
0.192922
0.192647
0.192377
0.192109
0.191842
0.191575
0.191307
0.191035
0.190758
0.190474
0.190183
0.189882
0.189569
0.189244
0.188905
0.188549
0.188176
0.187784
0.187371
0.186935
0.186476
0.185991
0.185479
0.184938
0.184366
0.183763
0.183126
0.182454
0.181744
0.180996
0.180208
0.179378
0.178504
0.177585
0.176619
0.175604
0.174539
0.173422
0.172252
0.171026
0.169744
0.168403
0.167002
0.16554
0.164015
0.162425
0.160769
0.159046
0.157254
0.155392
0.15346
0.151455
0.149378
0.147227
0.145001
0.142701
0.140325
0.137874
0.135347
0.132744
0.130067
0.127315
0.12449
0.121593
0.118626
0.11559
0.112488
0.109322
0.106097
0.102814
0.0994797
0.0960973
0.0926722
0.0892101
0.0857172
0.0822002
0.0786662
0.075123
0.0715787
0.068042
0.0645217
0.0610273
0.0575683
0.0541544
0.0507955
0.0475013
0.0442816
0.0411455
0.0381022
0.03516
0.0323268
0.0296094
0.0270141
0.0245459
0.022209
0.0200061
0.0179392
0.0160091
0.0142157
0.012558
0.0110379
0.00965114
0.27525
0.275035
0.274745
0.274368
0.273895
0.273326
0.272666
0.27192
0.271094
0.270191
0.269217
0.268176
0.267073
0.265912
0.264699
0.263437
0.262132
0.260788
0.259411
0.258004
0.256573
0.255122
0.253657
0.252181
0.250698
0.249214
0.247732
0.246256
0.24479
0.243335
0.241897
0.240476
0.239075
0.237695
0.23634
0.235009
0.233705
0.232428
0.23118
0.22996
0.228771
0.227612
0.226482
0.225384
0.224316
0.223279
0.222273
0.221297
0.220352
0.219438
0.218555
0.217702
0.216879
0.216087
0.215325
0.214592
0.213889
0.213214
0.212569
0.211951
0.211361
0.210798
0.210262
0.209751
0.209265
0.208804
0.208366
0.20795
0.207556
0.207181
0.206827
0.20649
0.20617
0.205866
0.205576
0.2053
0.205034
0.204779
0.204533
0.204294
0.204061
0.203832
0.203606
0.203381
0.203156
0.202928
0.202697
0.202461
0.202217
0.201965
0.201703
0.201429
0.201142
0.200839
0.200519
0.200181
0.199823
0.199442
0.199038
0.198609
0.198152
0.197667
0.197151
0.196602
0.19602
0.195401
0.194745
0.194049
0.193312
0.192532
0.191706
0.190834
0.189913
0.188941
0.187917
0.186839
0.185704
0.184512
0.183259
0.181945
0.180567
0.179124
0.177614
0.176035
0.174385
0.172663
0.170866
0.168995
0.167047
0.16502
0.162914
0.160727
0.158459
0.156107
0.153673
0.151154
0.14855
0.145862
0.14309
0.140233
0.137292
0.134268
0.131162
0.127976
0.124712
0.121372
0.11796
0.114478
0.110931
0.107323
0.10366
0.0999459
0.0961884
0.0923941
0.0885704
0.0847256
0.0808682
0.0770076
0.0731536
0.0693164
0.0655066
0.0617353
0.0580135
0.0543525
0.0507634
0.0472571
0.0438444
0.0405353
0.0373394
0.0342653
0.0313207
0.0285125
0.0258461
0.0233259
0.0209548
0.0187346
0.0166664
0.0147494
0.0129863
0.0113712
0.289831
0.28959
0.289268
0.288854
0.288339
0.287723
0.287013
0.286214
0.285331
0.28437
0.283336
0.282235
0.281071
0.279851
0.278578
0.277259
0.275899
0.274502
0.273074
0.27162
0.270145
0.268653
0.267149
0.265639
0.264125
0.262613
0.261106
0.259607
0.258121
0.256649
0.255195
0.253761
0.252348
0.250959
0.249595
0.248257
0.246946
0.245664
0.244411
0.243187
0.241994
0.240831
0.239699
0.238597
0.237527
0.236487
0.235479
0.234502
0.233555
0.23264
0.231756
0.230903
0.23008
0.229288
0.228527
0.227796
0.227096
0.226425
0.225783
0.225171
0.224587
0.224032
0.223504
0.223003
0.222529
0.22208
0.221655
0.221255
0.220877
0.220522
0.220187
0.219872
0.219575
0.219296
0.219033
0.218784
0.218549
0.218326
0.218113
0.217909
0.217712
0.217521
0.217335
0.217151
0.216968
0.216785
0.2166
0.21641
0.216215
0.216013
0.215801
0.215579
0.215344
0.215095
0.21483
0.214547
0.214244
0.21392
0.213573
0.213201
0.212802
0.212374
0.211915
0.211424
0.210898
0.210336
0.209735
0.209094
0.208411
0.207683
0.206909
0.206086
0.205213
0.204287
0.203307
0.20227
0.201174
0.200018
0.198798
0.197513
0.196161
0.194739
0.193246
0.19168
0.190038
0.188318
0.186519
0.184639
0.182675
0.180627
0.178492
0.176269
0.173956
0.171552
0.169055
0.166466
0.163782
0.161003
0.158129
0.155159
0.152094
0.148934
0.145679
0.142331
0.138891
0.135362
0.131746
0.128046
0.124265
0.120409
0.116481
0.112489
0.108437
0.104333
0.100185
0.0960014
0.0917914
0.0875648
0.0833324
0.0791053
0.0748955
0.0707151
0.0665767
0.0624932
0.0584775
0.0545423
0.0507003
0.0469636
0.0433437
0.0398514
0.0364963
0.0332873
0.0302316
0.0273352
0.0246027
0.0220374
0.0196412
0.0174145
0.0153605
0.0134724
0.306725
0.306457
0.306101
0.305648
0.305088
0.304424
0.30366
0.302805
0.301863
0.300841
0.299745
0.29858
0.297353
0.296069
0.294735
0.293355
0.291936
0.290483
0.289001
0.287495
0.285972
0.284435
0.28289
0.28134
0.279791
0.278246
0.27671
0.275184
0.273673
0.272179
0.270705
0.269252
0.267823
0.266418
0.26504
0.26369
0.262367
0.261074
0.259811
0.258578
0.257375
0.256203
0.255063
0.253953
0.252875
0.251828
0.250813
0.249829
0.248876
0.247955
0.247065
0.246207
0.245379
0.244584
0.243819
0.243085
0.242382
0.24171
0.241069
0.240457
0.239875
0.239322
0.238799
0.238303
0.237835
0.237394
0.236979
0.236589
0.236224
0.235882
0.235563
0.235265
0.234987
0.234728
0.234487
0.234263
0.234053
0.233857
0.233673
0.2335
0.233335
0.233179
0.233028
0.232882
0.232738
0.232596
0.232452
0.232306
0.232156
0.232
0.231837
0.231663
0.231479
0.231281
0.231068
0.230838
0.23059
0.23032
0.230028
0.229712
0.229369
0.228997
0.228595
0.22816
0.227691
0.227185
0.22664
0.226053
0.225424
0.224749
0.224027
0.223255
0.22243
0.221551
0.220616
0.219622
0.218566
0.217447
0.216261
0.215008
0.213683
0.212285
0.210811
0.209259
0.207627
0.205912
0.204112
0.202225
0.200247
0.198179
0.196016
0.193757
0.191401
0.188944
0.186387
0.183726
0.180961
0.178089
0.175112
0.172026
0.168833
0.165531
0.162121
0.158604
0.15498
0.151251
0.14742
0.143488
0.139459
0.135337
0.131127
0.126834
0.122465
0.118026
0.113525
0.108971
0.104375
0.0997456
0.0950954
0.0904364
0.0857816
0.0811446
0.0765396
0.0719812
0.0674841
0.0630634
0.0587337
0.0545096
0.0504048
0.0464326
0.0426051
0.0389332
0.0354265
0.0320933
0.02894
0.0259715
0.0231915
0.0206011
0.0182054
0.0159959
0.326045
0.325747
0.325355
0.32486
0.324253
0.323537
0.322718
0.321803
0.3208
0.319714
0.318552
0.317321
0.316027
0.314677
0.313277
0.311833
0.310351
0.308837
0.307297
0.305737
0.304161
0.302575
0.300983
0.29939
0.2978
0.296218
0.294646
0.293088
0.291547
0.290025
0.288524
0.287047
0.285595
0.284169
0.282771
0.281401
0.28006
0.278749
0.277469
0.27622
0.275002
0.273815
0.27266
0.271536
0.270444
0.269383
0.268354
0.267357
0.266392
0.265458
0.264557
0.263687
0.262849
0.262042
0.261268
0.260525
0.259814
0.259134
0.258486
0.257868
0.257281
0.256725
0.256198
0.255701
0.255233
0.254793
0.25438
0.253994
0.253634
0.253299
0.252988
0.2527
0.252434
0.252188
0.251961
0.251753
0.251562
0.251385
0.251223
0.251073
0.250934
0.250804
0.250682
0.250566
0.250454
0.250345
0.250237
0.250128
0.250016
0.2499
0.249777
0.249647
0.249506
0.249354
0.249187
0.249005
0.248805
0.248585
0.248343
0.248078
0.247786
0.247467
0.247117
0.246735
0.246318
0.245865
0.245372
0.244838
0.24426
0.243636
0.242964
0.24224
0.241463
0.24063
0.239739
0.238787
0.237771
0.236689
0.235539
0.234317
0.23302
0.231647
0.230194
0.228658
0.227038
0.225329
0.22353
0.221638
0.21965
0.217563
0.215376
0.213084
0.210687
0.208181
0.205564
0.202834
0.19999
0.197028
0.193948
0.190748
0.187426
0.183983
0.180417
0.176728
0.172918
0.168985
0.164933
0.160763
0.156477
0.15208
0.147575
0.142967
0.138263
0.13347
0.128594
0.123647
0.118636
0.113574
0.108473
0.103346
0.0982067
0.0930706
0.0879535
0.0828717
0.0778422
0.0728821
0.0680087
0.063239
0.0585895
0.0540762
0.0497139
0.0455164
0.0414961
0.0376634
0.0340275
0.0305953
0.0273725
0.0243618
0.0215698
0.0189872
0.34792
0.347589
0.347157
0.346616
0.345958
0.345187
0.344309
0.343332
0.342263
0.341109
0.339878
0.338576
0.337212
0.335791
0.334321
0.332808
0.331259
0.32968
0.328077
0.326456
0.324822
0.323181
0.321537
0.319895
0.318259
0.316633
0.315019
0.313422
0.311844
0.310287
0.308753
0.307244
0.305762
0.304307
0.302881
0.301484
0.300118
0.298782
0.297478
0.296205
0.294963
0.293754
0.292576
0.29143
0.290316
0.289234
0.288184
0.287167
0.286181
0.285228
0.284306
0.283417
0.28256
0.281736
0.280943
0.280183
0.279456
0.27876
0.278096
0.277464
0.276864
0.276294
0.275756
0.275248
0.27477
0.274322
0.273902
0.27351
0.273145
0.272807
0.272493
0.272205
0.271939
0.271696
0.271474
0.271271
0.271087
0.27092
0.270768
0.27063
0.270505
0.270391
0.270287
0.27019
0.270099
0.270013
0.269929
0.269846
0.269762
0.269675
0.269584
0.269486
0.269379
0.269262
0.269133
0.268989
0.268828
0.268649
0.268449
0.268226
0.267978
0.267703
0.267398
0.267062
0.266691
0.266284
0.265837
0.26535
0.264818
0.26424
0.263613
0.262934
0.2622
0.26141
0.26056
0.259648
0.25867
0.257624
0.256506
0.255315
0.254047
0.252698
0.251266
0.249748
0.248141
0.246441
0.244645
0.242751
0.240755
0.238653
0.236444
0.234124
0.23169
0.229139
0.226468
0.223674
0.220755
0.217708
0.21453
0.21122
0.207776
0.204195
0.200477
0.19662
0.192625
0.188491
0.184218
0.179809
0.175265
0.170589
0.165784
0.160855
0.155807
0.150647
0.145384
0.140025
0.134581
0.129063
0.123485
0.11786
0.112204
0.106532
0.100863
0.0952143
0.0896056
0.0840563
0.0785863
0.0732154
0.0679632
0.0628488
0.0578902
0.0531043
0.0485066
0.0441108
0.0399287
0.0359701
0.032243
0.0287519
0.025506
0.0224947
0.372493
0.372128
0.371651
0.37106
0.370346
0.369514
0.368571
0.367526
0.366386
0.365158
0.363852
0.362474
0.361032
0.359535
0.357988
0.3564
0.354777
0.353127
0.351454
0.349767
0.348068
0.346365
0.344662
0.342964
0.341274
0.339596
0.337933
0.336289
0.334666
0.333066
0.33149
0.329942
0.328421
0.326929
0.325466
0.324034
0.322634
0.321264
0.319927
0.318621
0.317348
0.316106
0.314897
0.31372
0.312576
0.311464
0.310384
0.309336
0.308321
0.307338
0.306387
0.30547
0.304584
0.303731
0.302911
0.302124
0.301369
0.300647
0.299957
0.299299
0.298674
0.298081
0.297519
0.296989
0.296489
0.29602
0.29558
0.295169
0.294786
0.294431
0.294103
0.2938
0.293522
0.293267
0.293035
0.292824
0.292632
0.29246
0.292304
0.292164
0.292039
0.291926
0.291824
0.291732
0.291647
0.291569
0.291495
0.291424
0.291353
0.291281
0.291207
0.291128
0.291041
0.290946
0.29084
0.290721
0.290587
0.290436
0.290266
0.290074
0.289858
0.289616
0.289345
0.289044
0.288709
0.288338
0.287929
0.287479
0.286985
0.286445
0.285856
0.285214
0.284518
0.283765
0.282951
0.282073
0.281129
0.280116
0.279029
0.277866
0.276624
0.275299
0.273888
0.272387
0.270793
0.269103
0.267313
0.265419
0.263418
0.261307
0.259081
0.256737
0.254272
0.251681
0.248963
0.246112
0.243126
0.240001
0.236734
0.233323
0.229763
0.226054
0.222192
0.218175
0.214004
0.209675
0.205189
0.200547
0.195749
0.190798
0.185695
0.180445
0.175052
0.169523
0.163865
0.158086
0.152197
0.146209
0.140136
0.133991
0.127792
0.121555
0.115301
0.109049
0.10282
0.0966362
0.0905211
0.0844971
0.0785872
0.0728139
0.0671987
0.0617623
0.0565238
0.0515004
0.0467074
0.0421578
0.0378625
0.0338286
0.0300678
0.026569
0.399929
0.399523
0.398996
0.398347
0.39757
0.396669
0.395654
0.394532
0.393311
0.392002
0.390611
0.389147
0.387619
0.386036
0.384404
0.382732
0.381027
0.379296
0.377545
0.375781
0.37401
0.372236
0.370465
0.368701
0.366948
0.36521
0.363489
0.361789
0.360111
0.358459
0.356833
0.355234
0.353665
0.352126
0.350618
0.349141
0.347696
0.346283
0.344902
0.343554
0.342238
0.340955
0.339704
0.338486
0.3373
0.336147
0.335026
0.333938
0.332882
0.331858
0.330867
0.329909
0.328983
0.32809
0.32723
0.326403
0.325608
0.324846
0.324117
0.32342
0.322756
0.322125
0.321525
0.320957
0.320421
0.319915
0.31944
0.318994
0.318578
0.31819
0.317829
0.317495
0.317187
0.316903
0.316643
0.316405
0.316189
0.315992
0.315815
0.315654
0.315509
0.315379
0.315262
0.315155
0.315059
0.31497
0.314888
0.31481
0.314734
0.31466
0.314585
0.314506
0.314423
0.314332
0.314233
0.314123
0.313999
0.31386
0.313703
0.313527
0.313328
0.313104
0.312854
0.312574
0.312261
0.311915
0.31153
0.311106
0.310639
0.310126
0.309564
0.308951
0.308284
0.307559
0.306773
0.305924
0.305007
0.30402
0.302959
0.301821
0.300601
0.299297
0.297905
0.296421
0.294841
0.293161
0.291378
0.289487
0.287484
0.285366
0.283128
0.280766
0.278276
0.275654
0.272896
0.269997
0.266953
0.263761
0.260416
0.256914
0.253252
0.249426
0.245433
0.24127
0.236935
0.232424
0.227738
0.222875
0.217836
0.212619
0.207228
0.201665
0.195934
0.19004
0.18399
0.177791
0.171454
0.164989
0.158411
0.151734
0.144974
0.138152
0.131286
0.1244
0.117517
0.110661
0.103857
0.0971334
0.0905148
0.0840281
0.0776988
0.0715516
0.0656098
0.0598947
0.0544257
0.0492194
0.0442905
0.0396489
0.03531
0.0312616
0.430406
0.429953
0.429369
0.428652
0.4278
0.426819
0.425718
0.424505
0.423191
0.421785
0.420295
0.418732
0.417105
0.415422
0.413691
0.411923
0.410123
0.408299
0.406458
0.404607
0.402751
0.400896
0.399046
0.397206
0.39538
0.39357
0.39178
0.390013
0.388271
0.386555
0.384867
0.383209
0.381581
0.379984
0.378418
0.376885
0.375384
0.373916
0.372481
0.371078
0.369709
0.368372
0.367067
0.365795
0.364556
0.363349
0.362174
0.361032
0.359922
0.358845
0.3578
0.356787
0.355807
0.354859
0.353944
0.353061
0.352211
0.351394
0.350609
0.349857
0.349138
0.34845
0.347795
0.347172
0.34658
0.34602
0.34549
0.34499
0.34452
0.344078
0.343665
0.34328
0.34292
0.342587
0.342278
0.341992
0.341729
0.341487
0.341265
0.341062
0.340876
0.340707
0.340551
0.340409
0.340278
0.340157
0.340044
0.339938
0.339836
0.339737
0.339639
0.339541
0.339439
0.339333
0.33922
0.339098
0.338965
0.338819
0.338657
0.338477
0.338277
0.338055
0.337807
0.337531
0.337225
0.336886
0.336512
0.336099
0.335644
0.335145
0.334599
0.334002
0.333352
0.332645
0.331878
0.331047
0.33015
0.329182
0.32814
0.32702
0.325818
0.324531
0.323155
0.321685
0.320117
0.318447
0.316672
0.314785
0.312784
0.310662
0.308417
0.306043
0.303535
0.300889
0.2981
0.295164
0.292074
0.288826
0.285416
0.281838
0.278088
0.274161
0.270053
0.26576
0.261279
0.256605
0.251736
0.24667
0.241406
0.235943
0.23028
0.22442
0.218365
0.212119
0.205687
0.199077
0.192297
0.185359
0.178276
0.171061
0.163734
0.156313
0.14882
0.141279
0.133714
0.126154
0.118626
0.111161
0.103788
0.0965384
0.0894411
0.0825259
0.0758204
0.0693509
0.0631412
0.0572125
0.0515838
0.0462683
0.0412857
0.0366234
0.464124
0.463617
0.462963
0.462165
0.461222
0.460142
0.458935
0.457611
0.456182
0.454658
0.453048
0.451365
0.449618
0.447816
0.445968
0.444085
0.442173
0.440241
0.438295
0.436341
0.434387
0.432436
0.430494
0.428564
0.426651
0.424758
0.422887
0.421041
0.419221
0.41743
0.415668
0.413937
0.412238
0.41057
0.408935
0.407333
0.405764
0.404227
0.402724
0.401254
0.399816
0.398411
0.397039
0.395699
0.394391
0.393116
0.391872
0.390661
0.389481
0.388333
0.387218
0.386134
0.385082
0.384062
0.383074
0.382118
0.381194
0.380302
0.379443
0.378615
0.37782
0.377056
0.376325
0.375625
0.374956
0.374319
0.373712
0.373135
0.372588
0.37207
0.37158
0.371119
0.370685
0.370276
0.369894
0.369535
0.369201
0.368888
0.368597
0.368326
0.368074
0.367839
0.367621
0.367417
0.367227
0.367048
0.36688
0.36672
0.366567
0.366419
0.366275
0.366132
0.365989
0.365844
0.365694
0.365537
0.365372
0.365197
0.365008
0.364803
0.364581
0.364339
0.364074
0.363784
0.363465
0.363116
0.362734
0.362315
0.361857
0.361356
0.36081
0.360215
0.359568
0.358866
0.358106
0.357283
0.356394
0.355436
0.354404
0.353295
0.352105
0.350829
0.349464
0.348004
0.346446
0.344785
0.343017
0.341135
0.339137
0.337016
0.334768
0.332387
0.329868
0.327207
0.324397
0.321432
0.318308
0.315018
0.311557
0.307919
0.304098
0.300089
0.295886
0.291483
0.286876
0.282061
0.277032
0.271787
0.266322
0.260635
0.254724
0.248589
0.242232
0.235655
0.228861
0.221857
0.21465
0.20725
0.199671
0.191925
0.184032
0.176009
0.167881
0.159672
0.151409
0.143122
0.134842
0.126602
0.118436
0.110379
0.102465
0.0947283
0.0872023
0.0799182
0.072905
0.0661891
0.0597943
0.0537382
0.0480453
0.0427029
0.502491
0.501913
0.501167
0.50026
0.499195
0.497981
0.496631
0.495158
0.493574
0.491892
0.490125
0.488283
0.48638
0.484424
0.482428
0.480398
0.478345
0.476276
0.474198
0.472118
0.47004
0.467971
0.465914
0.463874
0.461854