/*--------------------------------*- C++ -*----------------------------------*\
  =========                 |
  \\      /  F ield         | OpenFOAM: The Open Source CFD Toolbox
   \\    /   O peration     | Website:  https://openfoam.org
    \\  /    A nd           | Version:  7
     \\/     M anipulation  |
\*---------------------------------------------------------------------------*/
FoamFile
{
    version     2.0;
    format      ascii;
    class       volScalarField;
    location    "0.08";
    object      T;
}
// * * * * * * * * * * * * * * * * * * * * * * * * * * * * * * * * * * * * * //

dimensions      [0 0 0 1 0 0 0];

internalField   nonuniform List<scalar> 
12225
(
1.00689
1.0041
1.00171
1.00089
1.00043
1.00012
0.999964
0.999897
0.999865
0.999843
0.999827
0.999799
0.99974
0.999589
0.999201
0.998277
0.995776
0.990194
0.995136
0.994812
0.996745
0.998334
0.999127
0.999464
0.999644
0.999763
0.999838
0.999879
0.999896
0.999892
0.999846
0.999707
0.999336
0.998452
0.996207
0.99107
0.999619
1.00005
1.00023
1.00028
1.0002
1.00008
0.999991
0.999952
0.999932
0.999916
0.999898
0.999872
0.999812
0.999671
0.999321
0.998502
0.996546
0.992407
1.00032
1.00017
0.999777
0.999749
0.999819
0.999835
0.999837
0.99985
0.999864
0.99987
0.999869
0.999855
0.999808
0.999683
0.999372
0.998652
0.99703
0.993792
1.00014
0.999947
0.999658
0.999701
0.999818
0.999857
0.999862
0.999871
0.999881
0.999886
0.999883
0.999868
0.999824
0.999711
0.999437
0.998823
0.997514
0.995048
1.00002
0.999951
0.999769
0.999773
0.999847
0.999872
0.999872
0.999877
0.999884
0.999888
0.999885
0.999872
0.999832
0.999733
0.999499
0.998993
0.997967
0.996126
0.999995
1
0.999864
0.999822
0.999858
0.999877
0.999879
0.999882
0.999888
0.999892
0.99989
0.999878
0.999843
0.999759
0.999565
0.99916
0.998374
0.997021
0.999995
1.00002
0.999917
0.999858
0.999872
0.999888
0.999889
0.999891
0.999896
0.999898
0.999897
0.999886
0.999856
0.999786
0.999631
0.999315
0.998727
0.997746
0.999995
1.00002
0.999951
0.999894
0.999893
0.999902
0.999902
0.999903
0.999905
0.999906
0.999904
0.999895
0.99987
0.999814
0.999692
0.999453
0.999021
0.998321
0.999995
1.00002
0.999976
0.999926
0.999916
0.999918
0.999916
0.999915
0.999916
0.999916
0.999913
0.999904
0.999884
0.99984
0.999748
0.999572
0.999262
0.998768
0.999996
1.00002
0.999992
0.999953
0.999938
0.999935
0.999931
0.999928
0.999927
0.999926
0.999923
0.999916
0.9999
0.999866
0.999797
0.99967
0.999452
0.999111
0.999997
1.00001
1
0.999971
0.999954
0.999949
0.999944
0.99994
0.999938
0.999935
0.999932
0.999926
0.999914
0.999887
0.999836
0.999743
0.999588
0.999347
0.999997
1.00001
1.00001
0.999984
0.999968
0.999962
0.999957
0.999952
0.999948
0.999945
0.999943
0.999938
0.999926
0.999907
0.99987
0.999803
0.999694
0.999528
0.999997
1.00001
1.00001
0.999993
0.999981
0.999974
0.999968
0.999964
0.99996
0.999957
0.999954
0.99995
0.999941
0.999926
0.999901
0.999857
0.999786
0.999679
0.999998
1.00001
1.00001
1
0.999991
0.999985
0.999981
0.999977
0.999973
0.999968
0.999965
0.999962
0.999956
0.999947
0.999929
0.999901
0.999859
0.999796
0.999998
1.00001
1.00001
1
0.999998
0.999994
0.999991
0.999988
0.999983
0.999979
0.999976
0.999973
0.99997
0.999964
0.999952
0.999936
0.999913
0.999879
0.999998
1.00001
1.00001
1.00001
1
0.999999
0.999998
0.999996
0.999992
0.999989
0.999985
0.999982
0.99998
0.999977
0.999971
0.999962
0.99995
0.999934
0.999999
1.00001
1.00001
1.00001
1
1
1
0.999998
0.999995
0.999993
0.999993
0.999992
0.999988
0.999984
0.999981
0.999978
0.999973
0.999966
1
1.00001
1.00001
1.00001
1
1
1
0.999999
0.999998
0.999996
0.999994
0.999992
0.99999
0.999988
0.999987
0.999984
0.999981
0.999977
0.999999
1.00001
1.00001
1.00001
1.00001
1
0.999998
0.999996
0.999993
0.999991
0.999989
0.999987
0.999985
0.999982
0.999981
0.999979
0.999976
0.999975
0.999997
1.00001
1.00001
1.00001
1
0.999998
0.999993
0.999988
0.999985
0.999982
0.999979
0.999976
0.999973
0.999972
0.999971
0.999969
0.999968
0.999966
0.999997
1.00001
1.00002
1.00001
0.999995
0.999988
0.999982
0.999975
0.999969
0.999965
0.999964
0.999963
0.99996
0.999959
0.999958
0.999958
0.999957
0.999955
0.999996
1.00003
1.00003
0.999996
0.999972
0.999966
0.999961
0.999956
0.999952
0.999949
0.999948
0.999947
0.999946
0.999945
0.999945
0.999944
0.999944
0.999944
0.999989
1.00005
1.00004
0.999983
0.999948
0.999938
0.999932
0.999929
0.999929
0.999931
0.999932
0.999933
0.999932
0.999933
0.999934
0.999934
0.999935
0.999936
0.99999
1.00004
0.999992
0.999937
0.999931
0.999929
0.999917
0.999909
0.999908
0.99991
0.999912
0.999915
0.999917
0.999918
0.999919
0.999921
0.999924
0.999925
1.00013
1.00009
0.999825
0.999756
0.999837
0.999896
0.999909
0.999912
0.999916
0.999918
0.99992
0.999921
0.999922
0.999922
0.999923
0.999924
0.999925
0.999926
1.0005
1.00053
0.999952
0.999665
0.999667
0.999718
0.999754
0.999789
0.99982
0.999844
0.999861
0.999875
0.999885
0.999893
0.9999
0.999905
0.999909
0.999915
1.00004
1.0008
1.00096
1.0008
1.00056
1.00034
1.00018
1.00009
1.00003
0.999996
0.99997
0.999954
0.999943
0.999935
0.99993
0.999925
0.999921
0.999921
0.994604
0.993791
0.995838
0.997661
0.998662
0.999144
0.999416
0.999594
0.99971
0.999782
0.999829
0.999863
0.999887
0.999905
0.999918
0.999928
0.999933
0.99993
1.00635
1.00419
1.00178
1.00096
1.00054
1.00023
1.00005
0.999977
0.999939
0.999915
0.9999
0.999892
0.999888
0.999886
0.999885
0.999886
0.999888
0.999899
0.713332
0.713332
0.713286
0.713221
0.713152
0.713075
0.712988
0.712892
0.712791
0.712687
0.71258
0.712469
0.712357
0.712242
0.712128
0.712013
0.711901
0.711793
0.71169
0.711594
0.711508
0.711432
0.711369
0.71132
0.711288
0.711274
0.711279
0.711301
0.711339
0.711397
0.711486
0.711634
0.711911
0.712444
0.712992
0.713377
0.713783
0.714162
0.714534
0.714908
0.715256
0.715662
0.716164
0.716646
0.717168
0.717774
0.718399
0.719054
0.719737
0.720447
0.72118
0.721935
0.722711
0.723506
0.724318
0.725147
0.725991
0.726848
0.727718
0.7286
0.72949
0.73039
0.731297
0.732211
0.73313
0.734053
0.734979
0.735907
0.736837
0.737767
0.738696
0.739624
0.740549
0.741472
0.742392
0.743307
0.744217
0.745122
0.746021
0.746913
0.747799
0.748678
0.749549
0.750413
0.751268
0.752114
0.752952
0.753781
0.754601
0.755412
0.756214
0.757006
0.757788
0.758561
0.759323
0.760073
0.760811
0.761534
0.76225
0.762958
0.763655
0.764341
0.765016
0.76568
0.766332
0.766972
0.767601
0.768219
0.768824
0.769418
0.769999
0.770569
0.771126
0.771671
0.772204
0.772725
0.773233
0.773728
0.774209
0.774678
0.775134
0.775576
0.776004
0.776417
0.776815
0.777199
0.777568
0.777923
0.778263
0.778588
0.778898
0.779193
0.779474
0.779738
0.779988
0.780222
0.780441
0.780644
0.780831
0.781002
0.781158
0.781297
0.781419
0.781523
0.78161
0.781678
0.781727
0.781758
0.78177
0.781762
0.781735
0.781689
0.781622
0.781535
0.781428
0.7813
0.781152
0.780983
0.780792
0.78058
0.780346
0.780088
0.779798
0.779463
0.779088
0.778686
0.778264
0.777822
0.77736
0.776878
0.776376
0.775854
0.77531
0.774746
0.774162
0.773554
0.772947
0.772227
0.77177
0.770072
0.714076
0.714064
0.714043
0.714004
0.713957
0.713901
0.713835
0.713758
0.713669
0.713568
0.713459
0.713344
0.713225
0.713104
0.712984
0.712866
0.712752
0.712644
0.712543
0.712452
0.712373
0.712309
0.712262
0.712237
0.712238
0.712269
0.712335
0.712442
0.712593
0.712791
0.713027
0.713286
0.713545
0.713632
0.71363
0.713798
0.714059
0.714401
0.714807
0.715253
0.715753
0.716271
0.71676
0.717307
0.717915
0.718518
0.719142
0.71979
0.720465
0.721164
0.721888
0.722634
0.723402
0.724188
0.724993
0.725814
0.72665
0.7275
0.728362
0.729236
0.730119
0.731012
0.731912
0.732818
0.73373
0.734646
0.735565
0.736486
0.737409
0.738332
0.739254
0.740175
0.741094
0.74201
0.742923
0.743832
0.744735
0.745634
0.746526
0.747413
0.748292
0.749165
0.750029
0.750886
0.751735
0.752575
0.753406
0.754229
0.755042
0.755845
0.75664
0.757424
0.758199
0.758963
0.759717
0.760462
0.761198
0.761925
0.762641
0.763343
0.764034
0.764713
0.76538
0.766036
0.76668
0.767313
0.767934
0.768543
0.76914
0.769725
0.770298
0.770858
0.771406
0.771943
0.772466
0.772977
0.773475
0.77396
0.774432
0.774891
0.775337
0.775768
0.776185
0.776587
0.776975
0.777347
0.777706
0.778049
0.778377
0.77869
0.778989
0.779272
0.77954
0.779792
0.780029
0.78025
0.780455
0.780645
0.780819
0.780976
0.781118
0.781242
0.78135
0.781439
0.78151
0.781563
0.781596
0.781611
0.781607
0.781582
0.781538
0.781474
0.78139
0.781285
0.781159
0.781013
0.780845
0.780656
0.780446
0.780213
0.779958
0.779678
0.779377
0.779057
0.778716
0.77835
0.777961
0.777551
0.777118
0.776664
0.776188
0.77569
0.775171
0.774631
0.774072
0.77349
0.772907
0.772238
0.771742
0.770475
0.715666
0.715608
0.715568
0.715524
0.715471
0.715404
0.715324
0.715232
0.71513
0.715017
0.714898
0.714772
0.714643
0.714512
0.714382
0.714253
0.714129
0.714011
0.713901
0.713801
0.713714
0.713641
0.713587
0.713552
0.71354
0.713552
0.71359
0.713652
0.713738
0.713846
0.713974
0.714126
0.714309
0.714504
0.714713
0.714961
0.715243
0.715565
0.715932
0.716344
0.716804
0.71731
0.71785
0.718417
0.719004
0.719606
0.72023
0.720878
0.721549
0.722244
0.722961
0.723699
0.724458
0.725236
0.726032
0.726844
0.727672
0.728513
0.729367
0.730233
0.731108
0.731993
0.732885
0.733784
0.734689
0.735598
0.736511
0.737426
0.738343
0.739261
0.740178
0.741094
0.742009
0.742921
0.74383
0.744735
0.745635
0.746531
0.74742
0.748304
0.749182
0.750053
0.750916
0.751771
0.752619
0.753458
0.754289
0.755111
0.755925
0.756729
0.757524
0.758309
0.759084
0.75985
0.760605
0.76135
0.762085
0.762809
0.763522
0.764225
0.764917
0.765597
0.766266
0.766924
0.76757
0.768204
0.768827
0.769438
0.770036
0.770623
0.771198
0.77176
0.772311
0.772849
0.773374
0.773886
0.774386
0.774873
0.775346
0.775807
0.776253
0.776686
0.777104
0.777507
0.777895
0.778269
0.778627
0.778971
0.779299
0.779613
0.779911
0.780194
0.780461
0.780713
0.780949
0.781169
0.781373
0.781561
0.781733
0.781888
0.782027
0.782149
0.782253
0.782339
0.782406
0.782455
0.782484
0.782494
0.782485
0.782455
0.782406
0.782336
0.782245
0.782134
0.782001
0.781848
0.781673
0.781477
0.781259
0.781019
0.780756
0.780472
0.780167
0.779846
0.779507
0.779146
0.778763
0.778357
0.777928
0.777478
0.777005
0.776511
0.775994
0.775456
0.774897
0.774316
0.773727
0.773065
0.772533
0.77152
0.718041
0.71794
0.717872
0.717813
0.717744
0.71766
0.717563
0.717453
0.717334
0.717206
0.717071
0.71693
0.716786
0.716641
0.716496
0.716354
0.716215
0.716083
0.71596
0.715847
0.715747
0.715662
0.715594
0.715544
0.715516
0.715509
0.715526
0.715566
0.71563
0.71572
0.715838
0.715986
0.716164
0.716365
0.716591
0.716851
0.717143
0.717469
0.717827
0.71822
0.718648
0.719111
0.719606
0.720133
0.72069
0.721272
0.72188
0.722513
0.72317
0.72385
0.724552
0.725276
0.72602
0.726783
0.727564
0.728361
0.729174
0.730001
0.730841
0.731693
0.732555
0.733427
0.734307
0.735194
0.736087
0.736985
0.737888
0.738793
0.7397
0.740609
0.741518
0.742426
0.743334
0.744239
0.745142
0.746042
0.746937
0.747828
0.748715
0.749596
0.75047
0.751339
0.7522
0.753055
0.753902
0.754741
0.755572
0.756395
0.75721
0.758016
0.758812
0.7596
0.760379
0.761147
0.761906
0.762655
0.763394
0.764123
0.764841
0.765549
0.766245
0.766931
0.767605
0.768269
0.76892
0.769561
0.770189
0.770806
0.771411
0.772005
0.772586
0.773155
0.773712
0.774256
0.774788
0.775308
0.775814
0.776307
0.776787
0.777254
0.777707
0.778146
0.77857
0.778979
0.779373
0.779752
0.780117
0.780466
0.7808
0.781119
0.781422
0.781709
0.781981
0.782237
0.782477
0.782701
0.782908
0.783099
0.783274
0.783432
0.783573
0.783696
0.783801
0.783888
0.783956
0.784005
0.784034
0.784044
0.784033
0.784003
0.783952
0.78388
0.783788
0.783674
0.783539
0.783383
0.783205
0.783005
0.782784
0.78254
0.782275
0.781987
0.78168
0.781353
0.781007
0.78064
0.78025
0.779839
0.779405
0.778948
0.77847
0.777969
0.777446
0.7769
0.776333
0.775742
0.775137
0.774469
0.773907
0.773009
0.721168
0.721025
0.720933
0.720861
0.720778
0.720677
0.720562
0.720433
0.720294
0.720146
0.719991
0.719831
0.719667
0.719501
0.719336
0.719174
0.719015
0.718864
0.718721
0.718588
0.718469
0.718363
0.718275
0.718204
0.718154
0.718126
0.718121
0.71814
0.718186
0.718259
0.718361
0.718492
0.718653
0.71884
0.719055
0.719302
0.719582
0.719894
0.720238
0.720615
0.721024
0.721464
0.721935
0.722437
0.722968
0.723527
0.724112
0.724724
0.72536
0.726019
0.726702
0.727405
0.728129
0.728872
0.729634
0.730412
0.731205
0.732014
0.732835
0.733669
0.734514
0.735369
0.736233
0.737104
0.737982
0.738866
0.739755
0.740647
0.741542
0.742439
0.743337
0.744235
0.745133
0.74603
0.746925
0.747817
0.748706
0.749591
0.750472
0.751349
0.75222
0.753085
0.753944
0.754796
0.755642
0.756481
0.757312
0.758135
0.75895
0.759758
0.760557
0.761347
0.762128
0.7629
0.763662
0.764415
0.765159
0.765892
0.766615
0.767328
0.76803
0.768722
0.769403
0.770073
0.770731
0.771379
0.772014
0.772639
0.773251
0.773853
0.774441
0.775018
0.775583
0.776136
0.776675
0.777203
0.777717
0.778218
0.778706
0.779181
0.779641
0.780088
0.780519
0.780936
0.781337
0.781724
0.782095
0.782451
0.782791
0.783116
0.783425
0.783718
0.783995
0.784256
0.784501
0.784729
0.78494
0.785135
0.785313
0.785474
0.785617
0.785743
0.785849
0.785937
0.786006
0.786055
0.786084
0.786094
0.786083
0.786051
0.785998
0.785925
0.78583
0.785714
0.785576
0.785416
0.785235
0.785031
0.784805
0.784557
0.784287
0.783995
0.783682
0.783349
0.782995
0.78262
0.782223
0.781803
0.781362
0.780898
0.780411
0.779902
0.779371
0.778816
0.778239
0.777636
0.777016
0.776339
0.77576
0.774896
0.725055
0.724881
0.72477
0.724684
0.724586
0.724468
0.724334
0.724185
0.724024
0.723853
0.723675
0.723491
0.723303
0.723113
0.722923
0.722736
0.722554
0.722378
0.72221
0.722054
0.721909
0.72178
0.721667
0.721572
0.721498
0.721446
0.721417
0.721414
0.721438
0.721489
0.721569
0.721678
0.721816
0.721983
0.722179
0.722406
0.722665
0.722955
0.723278
0.723632
0.724018
0.724435
0.724882
0.725359
0.725865
0.726398
0.726957
0.727543
0.728153
0.728787
0.729444
0.730122
0.730821
0.731539
0.732276
0.733029
0.733799
0.734584
0.735383
0.736194
0.737017
0.737851
0.738694
0.739546
0.740405
0.74127
0.742141
0.743017
0.743895
0.744777
0.745661
0.746546
0.747431
0.748316
0.749199
0.750082
0.750961
0.751838
0.752712
0.753581
0.754446
0.755306
0.75616
0.757009
0.757852
0.758688
0.759518
0.76034
0.761155
0.761962
0.762762
0.763554
0.764337
0.765111
0.765877
0.766633
0.76738
0.768118
0.768846
0.769564
0.770272
0.77097
0.771657
0.772333
0.772998
0.773652
0.774296
0.774927
0.775548
0.776157
0.776754
0.777339
0.777912
0.778472
0.779021
0.779556
0.780079
0.780589
0.781085
0.781568
0.782036
0.782491
0.78293
0.783354
0.783763
0.784157
0.784535
0.784898
0.785245
0.785577
0.785892
0.786191
0.786473
0.786739
0.786989
0.787221
0.787437
0.787635
0.787816
0.78798
0.788125
0.788252
0.78836
0.788449
0.788517
0.788566
0.788595
0.788603
0.78859
0.788557
0.788502
0.788425
0.788327
0.788207
0.788065
0.787901
0.787715
0.787506
0.787275
0.787021
0.786745
0.786446
0.786127
0.785786
0.785424
0.78504
0.784634
0.784206
0.783756
0.783283
0.782787
0.782269
0.781728
0.781163
0.780575
0.77996
0.779326
0.778638
0.778047
0.777177
0.729722
0.729531
0.729405
0.729305
0.729191
0.729054
0.728899
0.728728
0.728543
0.728348
0.728144
0.727933
0.727718
0.727501
0.727283
0.727068
0.726858
0.726654
0.726458
0.726274
0.726102
0.725945
0.725805
0.725683
0.725582
0.725504
0.725449
0.725419
0.725417
0.725442
0.725496
0.725579
0.725691
0.725832
0.726003
0.726204
0.726437
0.726702
0.726997
0.727324
0.727682
0.72807
0.728488
0.728936
0.729411
0.729914
0.730443
0.730998
0.731577
0.73218
0.732806
0.733454
0.734123
0.734811
0.735518
0.736242
0.736983
0.737739
0.73851
0.739294
0.740091
0.740899
0.741716
0.742544
0.743379
0.744222
0.74507
0.745925
0.746784
0.747646
0.748511
0.749379
0.750247
0.751117
0.751986
0.752855
0.753722
0.754587
0.75545
0.756309
0.757165
0.758017
0.758865
0.759707
0.760544
0.761376
0.762201
0.763021
0.763833
0.764639
0.765438
0.766229
0.767012
0.767788
0.768555
0.769313
0.770063
0.770804
0.771536
0.772258
0.77297
0.773673
0.774365
0.775047
0.775719
0.776379
0.777029
0.777668
0.778296
0.778912
0.779517
0.78011
0.780691
0.781259
0.781816
0.782359
0.78289
0.783408
0.783913
0.784404
0.78488
0.785342
0.785789
0.786221
0.786638
0.787039
0.787425
0.787794
0.788148
0.788486
0.788807
0.789112
0.789399
0.78967
0.789924
0.790161
0.79038
0.790582
0.790766
0.790931
0.791079
0.791207
0.791316
0.791404
0.791473
0.791521
0.791548
0.791555
0.79154
0.791503
0.791445
0.791365
0.791263
0.791138
0.790991
0.790822
0.790629
0.790414
0.790176
0.789916
0.789632
0.789327
0.788999
0.788649
0.788278
0.787885
0.787469
0.787032
0.786572
0.786089
0.785583
0.785055
0.784503
0.783927
0.783326
0.782698
0.782051
0.781351
0.780744
0.779851
0.735205
0.735004
0.734866
0.734751
0.734619
0.734463
0.734286
0.734091
0.733881
0.733659
0.733427
0.733188
0.732943
0.732696
0.732448
0.732202
0.731961
0.731726
0.731499
0.731284
0.731081
0.730894
0.730723
0.730572
0.730441
0.730333
0.730248
0.73019
0.730157
0.730152
0.730176
0.730228
0.730309
0.73042
0.730561
0.730732
0.730934
0.731167
0.731431
0.731725
0.73205
0.732405
0.732788
0.733201
0.733641
0.734109
0.734603
0.735122
0.735665
0.736233
0.736823
0.737435
0.738068
0.738721
0.739393
0.740082
0.740789
0.741512
0.74225
0.743001
0.743766
0.744542
0.74533
0.746128
0.746934
0.747749
0.748571
0.7494
0.750233
0.751072
0.751914
0.75276
0.753608
0.754457
0.755308
0.756159
0.757009
0.757858
0.758706
0.759552
0.760396
0.761236
0.762073
0.762906
0.763734
0.764558
0.765376
0.766189
0.766997
0.767798
0.768593
0.769381
0.770162
0.770936
0.771702
0.772461
0.773211
0.773953
0.774686
0.775411
0.776126
0.776832
0.777528
0.778214
0.77889
0.779556
0.780211
0.780855
0.781489
0.782111
0.782723
0.783322
0.78391
0.784485
0.785049
0.7856
0.786138
0.786664
0.787175
0.787674
0.788157
0.788627
0.789081
0.78952
0.789944
0.790352
0.790744
0.79112
0.79148
0.791823
0.79215
0.792459
0.792752
0.793027
0.793285
0.793526
0.793748
0.793953
0.794139
0.794306
0.794455
0.794584
0.794693
0.794781
0.794849
0.794896
0.794921
0.794925
0.794907
0.794868
0.794805
0.794721
0.794614
0.794484
0.794331
0.794155
0.793956
0.793734
0.793488
0.79322
0.792928
0.792614
0.792277
0.791918
0.791536
0.791132
0.790707
0.790258
0.789787
0.789293
0.788776
0.788236
0.787673
0.787085
0.786471
0.78583
0.785169
0.784455
0.783832
0.78291
0.741545
0.741337
0.741187
0.741057
0.740906
0.740729
0.740529
0.740309
0.740072
0.739822
0.73956
0.73929
0.739014
0.738734
0.738453
0.738174
0.737899
0.737631
0.737371
0.737122
0.736886
0.736665
0.736461
0.736276
0.736112
0.735971
0.735853
0.735761
0.735695
0.735656
0.735645
0.735663
0.73571
0.735786
0.735892
0.736027
0.736193
0.73639
0.736616
0.736873
0.73716
0.737476
0.73782
0.738193
0.738594
0.739021
0.739474
0.739952
0.740454
0.74098
0.741529
0.7421
0.742692
0.743304
0.743936
0.744585
0.745252
0.745936
0.746635
0.747348
0.748075
0.748815
0.749567
0.750329
0.751102
0.751883
0.752673
0.75347
0.754274
0.755083
0.755897
0.756715
0.757537
0.758362
0.759188
0.760017
0.760845
0.761674
0.762502
0.76333
0.764156
0.76498
0.765802
0.766621
0.767436
0.768248
0.769055
0.769858
0.770656
0.771449
0.772237
0.773018
0.773794
0.774562
0.775325
0.77608
0.776827
0.777567
0.778299
0.779023
0.779738
0.780444
0.781141
0.781829
0.782507
0.783175
0.783833
0.784481
0.785118
0.785745
0.78636
0.786965
0.787557
0.788138
0.788707
0.789264
0.789808
0.790339
0.790856
0.79136
0.79185
0.792325
0.792785
0.79323
0.793659
0.794073
0.79447
0.794852
0.795217
0.795565
0.795896
0.79621
0.796506
0.796785
0.797046
0.797289
0.797514
0.797721
0.797909
0.798077
0.798226
0.798355
0.798463
0.798551
0.798617
0.798662
0.798685
0.798685
0.798664
0.79862
0.798553
0.798463
0.798351
0.798214
0.798055
0.797872
0.797665
0.797435
0.797181
0.796904
0.796603
0.796279
0.795932
0.795563
0.79517
0.794755
0.794318
0.793858
0.793375
0.792869
0.79234
0.791788
0.791212
0.790611
0.789984
0.78933
0.788654
0.787925
0.787287
0.786335
0.748786
0.748574
0.748411
0.748263
0.748092
0.747893
0.747668
0.747421
0.747157
0.746876
0.746583
0.74628
0.74597
0.745656
0.74534
0.745026
0.744715
0.74441
0.744113
0.743828
0.743555
0.743298
0.743058
0.742836
0.742636
0.742458
0.742303
0.742174
0.74207
0.741993
0.741944
0.741923
0.741931
0.741968
0.742034
0.742129
0.742255
0.742409
0.742594
0.742808
0.743051
0.743323
0.743624
0.743951
0.744306
0.744687
0.745094
0.745526
0.745982
0.746461
0.746964
0.747488
0.748033
0.748598
0.749183
0.749787
0.750408
0.751046
0.751701
0.75237
0.753054
0.753751
0.75446
0.755182
0.755914
0.756656
0.757407
0.758167
0.758934
0.759707
0.760487
0.761272
0.762062
0.762856
0.763653
0.764452
0.765253
0.766056
0.766859
0.767663
0.768466
0.769268
0.770069
0.770869
0.771666
0.77246
0.773251
0.774039
0.774823
0.775602
0.776377
0.777148
0.777913
0.778672
0.779426
0.780173
0.780913
0.781647
0.782374
0.783093
0.783804
0.784507
0.785201
0.785887
0.786563
0.787231
0.787889
0.788537
0.789174
0.789802
0.790419
0.791025
0.79162
0.792203
0.792775
0.793334
0.793881
0.794416
0.794937
0.795444
0.795937
0.796416
0.79688
0.797329
0.797762
0.798179
0.79858
0.798965
0.799334
0.799685
0.800019
0.800336
0.800635
0.800916
0.801179
0.801423
0.801649
0.801857
0.802045
0.802213
0.802362
0.802489
0.802596
0.802682
0.802745
0.802787
0.802807
0.802803
0.802777
0.802728
0.802656
0.802561
0.802441
0.802298
0.802131
0.80194
0.801726
0.801487
0.801224
0.800937
0.800626
0.800292
0.799934
0.799554
0.79915
0.798723
0.798273
0.797801
0.797305
0.796787
0.796245
0.79568
0.795091
0.794477
0.793837
0.793169
0.792479
0.791735
0.791081
0.790101
0.756976
0.75676
0.756584
0.756417
0.756224
0.756
0.755749
0.755474
0.755179
0.754867
0.75454
0.754203
0.753857
0.753506
0.753152
0.752799
0.752449
0.752105
0.75177
0.751444
0.751132
0.750835
0.750555
0.750294
0.750053
0.749834
0.749639
0.749468
0.749323
0.749204
0.749113
0.749049
0.749013
0.749006
0.749027
0.749078
0.749157
0.749266
0.749403
0.74957
0.749764
0.749987
0.750237
0.750515
0.750819
0.751148
0.751503
0.751883
0.752287
0.752714
0.753163
0.753634
0.754127
0.75464
0.755172
0.755723
0.756293
0.756879
0.757482
0.758101
0.758735
0.759382
0.760043
0.760716
0.761401
0.762097
0.762803
0.763518
0.764242
0.764974
0.765712
0.766457
0.767208
0.767964
0.768724
0.769488
0.770255
0.771024
0.771796
0.772569
0.773342
0.774116
0.77489
0.775664
0.776436
0.777207
0.777975
0.778742
0.779505
0.780266
0.781023
0.781776
0.782525
0.783269
0.784009
0.784743
0.785471
0.786194
0.78691
0.787619
0.788321
0.789016
0.789703
0.790382
0.791052
0.791714
0.792368
0.793012
0.793646
0.79427
0.794885
0.795489
0.796082
0.796664
0.797235
0.797794
0.798341
0.798875
0.799397
0.799905
0.800399
0.800878
0.801343
0.801793
0.802227
0.802646
0.803049
0.803435
0.803804
0.804156
0.804491
0.804809
0.805108
0.80539
0.805653
0.805897
0.806123
0.806329
0.806516
0.806683
0.806829
0.806955
0.807059
0.807141
0.807201
0.807239
0.807254
0.807246
0.807214
0.80716
0.807081
0.806979
0.806852
0.806701
0.806526
0.806327
0.806103
0.805855
0.805582
0.805285
0.804964
0.804619
0.80425
0.803858
0.803442
0.803002
0.80254
0.802055
0.801546
0.801015
0.80046
0.799882
0.799279
0.798652
0.797999
0.797317
0.796614
0.795856
0.795186
0.794181
0.76617
0.765949
0.765759
0.765571
0.765353
0.765103
0.764823
0.764518
0.76419
0.763843
0.76348
0.763104
0.762719
0.762328
0.761934
0.76154
0.761148
0.760762
0.760383
0.760015
0.75966
0.759319
0.758995
0.75869
0.758405
0.758142
0.757902
0.757685
0.757494
0.757329
0.757191
0.757079
0.756996
0.75694
0.756912
0.756913
0.756941
0.756998
0.757083
0.757197
0.757337
0.757505
0.7577
0.757922
0.758169
0.758442
0.758739
0.759061
0.759406
0.759775
0.760165
0.760577
0.761011
0.761464
0.761937
0.76243
0.76294
0.763468
0.764013
0.764574
0.765151
0.765742
0.766347
0.766965
0.767595
0.768237
0.76889
0.769553
0.770226
0.770908
0.771597
0.772295
0.772999
0.773709
0.774425
0.775145
0.77587
0.776599
0.777331
0.778065
0.778802
0.77954
0.78028
0.78102
0.78176
0.782499
0.783238
0.783976
0.784713
0.785447
0.786179
0.786908
0.787634
0.788357
0.789076
0.78979
0.7905
0.791204
0.791904
0.792597
0.793284
0.793965
0.794639
0.795306
0.795965
0.796617
0.79726
0.797895
0.79852
0.799137
0.799744
0.800341
0.800928
0.801505
0.80207
0.802625
0.803167
0.803698
0.804215
0.80472
0.805211
0.805688
0.80615
0.806598
0.80703
0.807447
0.807848
0.808232
0.8086
0.808951
0.809284
0.8096
0.809897
0.810177
0.810437
0.81068
0.810903
0.811107
0.81129
0.811454
0.811597
0.811718
0.811818
0.811896
0.811951
0.811983
0.811992
0.811978
0.81194
0.811879
0.811793
0.811683
0.811549
0.811389
0.811206
0.810997
0.810764
0.810506
0.810223
0.809915
0.809583
0.809226
0.808845
0.808441
0.808012
0.80756
0.807085
0.806587
0.806065
0.80552
0.804952
0.804361
0.803745
0.803104
0.802438
0.801743
0.801027
0.800255
0.799571
0.798545
0.776427
0.7762
0.775994
0.775782
0.775537
0.775257
0.774945
0.774605
0.774241
0.773855
0.773452
0.773035
0.772607
0.772172
0.771733
0.771293
0.770856
0.770423
0.769997
0.769582
0.76918
0.768791
0.76842
0.768066
0.767733
0.767421
0.767131
0.766865
0.766624
0.766408
0.766218
0.766054
0.765917
0.765808
0.765726
0.765671
0.765644
0.765644
0.765671
0.765726
0.765807
0.765915
0.766049
0.766209
0.766394
0.766603
0.766837
0.767095
0.767375
0.767678
0.768003
0.76835
0.768717
0.769105
0.769512
0.769938
0.770382
0.770844
0.771324
0.771819
0.772331
0.772857
0.773398
0.773953
0.774521
0.775101
0.775693
0.776296
0.776909
0.777532
0.778165
0.778806
0.779454
0.78011
0.780773
0.781442
0.782116
0.782795
0.783479
0.784167
0.784858
0.785552
0.786248
0.786946
0.787646
0.788346
0.789047
0.789748
0.790449
0.791149
0.791848
0.792546
0.793241
0.793935
0.794625
0.795312
0.795996
0.796676
0.797352
0.798022
0.798688
0.799348
0.800002
0.80065
0.801291
0.801926
0.802553
0.803172
0.803784
0.804387
0.804981
0.805566
0.806141
0.806706
0.807262
0.807806
0.80834
0.808861
0.809371
0.809868
0.810351
0.810821
0.811277
0.811718
0.812145
0.812556
0.812951
0.81333
0.813693
0.814039
0.814367
0.814678
0.814971
0.815245
0.815502
0.815739
0.815957
0.816156
0.816335
0.816493
0.81663
0.816745
0.816839
0.816911
0.816959
0.816985
0.816987
0.816966
0.816921
0.816851
0.816757
0.816639
0.816495
0.816327
0.816133
0.815915
0.815672
0.815403
0.815109
0.81479
0.814447
0.814078
0.813686
0.813269
0.812828
0.812363
0.811874
0.811363
0.810828
0.81027
0.809688
0.809084
0.808455
0.807801
0.807122
0.806415
0.805686
0.804901
0.804204
0.803161
0.787815
0.78758
0.787354
0.787114
0.786838
0.786524
0.786175
0.785795
0.785388
0.784958
0.784509
0.784045
0.783569
0.783084
0.782595
0.782104
0.781615
0.781131
0.780654
0.780187
0.779732
0.779291
0.778867
0.77846
0.778073
0.777708
0.777364
0.777043
0.776747
0.776475
0.776228
0.776007
0.775813
0.775644
0.775502
0.775387
0.775299
0.775236
0.7752
0.775191
0.775207
0.775249
0.775316
0.775407
0.775523
0.775664
0.775827
0.776014
0.776223
0.776454
0.776706
0.77698
0.777274
0.777588
0.777921
0.778274
0.778644
0.779033
0.779438
0.77986
0.780298
0.780752
0.781221
0.781703
0.7822
0.782709
0.783231
0.783765
0.784309
0.784865
0.785431
0.786006
0.78659
0.787182
0.787783
0.78839
0.789004
0.789625
0.790251
0.790882
0.791518
0.792158
0.792802
0.793449
0.794099
0.794751
0.795405
0.79606
0.796717
0.797374
0.798031
0.798688
0.799344
0.8
0.800654
0.801306
0.801955
0.802602
0.803246
0.803886
0.804522
0.805154
0.805781
0.806402
0.807019
0.807629
0.808233
0.80883
0.80942
0.810003
0.810577
0.811144
0.811701
0.81225
0.812789
0.813318
0.813836
0.814344
0.81484
0.815323
0.815795
0.816253
0.816697
0.817128
0.817544
0.817945
0.818331
0.818701
0.819055
0.819392
0.819712
0.820014
0.820299
0.820566
0.820814
0.821044
0.821254
0.821445
0.821616
0.821766
0.821896
0.822003
0.822089
0.822153
0.822193
0.82221
0.822204
0.822174
0.82212
0.822041
0.821938
0.82181
0.821657
0.821478
0.821275
0.821046
0.820792
0.820512
0.820207
0.819877
0.819521
0.819141
0.818736
0.818306
0.817852
0.817375
0.816873
0.816349
0.815801
0.815229
0.814635
0.814017
0.813375
0.812709
0.812018
0.811298
0.810558
0.809762
0.809053
0.807996
0.800409
0.800162
0.799912
0.799639
0.799326
0.79897
0.798576
0.798148
0.797691
0.797209
0.796706
0.796185
0.795653
0.795111
0.794564
0.794015
0.793468
0.792926
0.79239
0.791865
0.791352
0.790853
0.79037
0.789905
0.78946
0.789035
0.788631
0.788251
0.787894
0.78756
0.787252
0.786968
0.78671
0.786477
0.78627
0.786089
0.785933
0.785802
0.785697
0.785617
0.785561
0.785531
0.785524
0.785541
0.785582
0.785645
0.785731
0.78584
0.78597
0.786122
0.786294
0.786487
0.7867
0.786933
0.787185
0.787455
0.787743
0.788049
0.788372
0.788712
0.789068
0.78944
0.789827
0.790228
0.790644
0.791073
0.791515
0.79197
0.792437
0.792915
0.793404
0.793903
0.794413
0.794932
0.795459
0.795995
0.796539
0.797091
0.797649
0.798214
0.798785
0.799361
0.799942
0.800528
0.801118
0.801712
0.802309
0.802909
0.803511
0.804116
0.804721
0.805329
0.805936
0.806544
0.807153
0.80776
0.808367
0.808972
0.809575
0.810176
0.810774
0.811369
0.811961
0.812548
0.813131
0.81371
0.814283
0.814851
0.815412
0.815967
0.816515
0.817056
0.817589
0.818114
0.81863
0.819137
0.819635
0.820122
0.820598
0.821063
0.821517
0.821957
0.822385
0.8228
0.823201
0.823587
0.823959
0.824315
0.824655
0.82498
0.825287
0.825578
0.825851
0.826106
0.826343
0.826562
0.826762
0.826942
0.827102
0.827242
0.827361
0.827459
0.827534
0.827587
0.827618
0.827625
0.827608
0.827568
0.827503
0.827414
0.827301
0.827162
0.826998
0.826809
0.826594
0.826354
0.826089
0.825798
0.825481
0.825139
0.824771
0.824379
0.823961
0.823519
0.823053
0.822562
0.822048
0.82151
0.820949
0.820364
0.819757
0.819126
0.818472
0.817794
0.817091
0.816361
0.81561
0.814805
0.814084
0.813017
0.814735
0.814468
0.814185
0.813869
0.813507
0.813096
0.812643
0.812152
0.811629
0.811079
0.810506
0.809915
0.809312
0.808699
0.808081
0.807462
0.806845
0.806233
0.805628
0.805034
0.804453
0.803886
0.803335
0.802803
0.802289
0.801796
0.801325
0.800875
0.800448
0.800045
0.799666
0.799311
0.79898
0.798673
0.798391
0.798134
0.797901
0.797692
0.797507
0.797346
0.797209
0.797095
0.797005
0.796936
0.796891
0.796867
0.796865
0.796884
0.796924
0.796985
0.797066
0.797167
0.797287
0.797426
0.797583
0.797759
0.797952
0.798163
0.798391
0.798636
0.798897
0.799173
0.799465
0.799772
0.800094
0.800429
0.800778
0.80114
0.801515
0.801902
0.8023
0.80271