/*--------------------------------*- C++ -*----------------------------------*\
  =========                 |
  \\      /  F ield         | OpenFOAM: The Open Source CFD Toolbox
   \\    /   O peration     | Website:  https://openfoam.org
    \\  /    A nd           | Version:  7
     \\/     M anipulation  |
\*---------------------------------------------------------------------------*/
FoamFile
{
    version     2.0;
    format      ascii;
    class       volScalarField;
    location    "0.06";
    object      T;
}
// * * * * * * * * * * * * * * * * * * * * * * * * * * * * * * * * * * * * * //

dimensions      [0 0 0 1 0 0 0];

internalField   nonuniform List<scalar> 
12225
(
1.00689
1.0041
1.00171
1.00089
1.00043
1.00012
0.999964
0.999897
0.999864
0.999841
0.999821
0.999783
0.999697
0.999475
0.998913
0.997557
0.993979
0.985585
0.995136
0.994812
0.996745
0.998334
0.999127
0.999464
0.999644
0.999763
0.999837
0.999877
0.99989
0.999876
0.999803
0.999597
0.999059
0.997765
0.994524
0.98698
0.999619
1.00005
1.00023
1.00028
1.0002
1.00008
0.999991
0.999952
0.999932
0.999914
0.999893
0.999856
0.999772
0.999568
0.999061
0.997869
0.995041
0.988977
1.00032
1.00017
0.999777
0.999749
0.999819
0.999835
0.999837
0.99985
0.999863
0.999869
0.999864
0.99984
0.99977
0.999587
0.999135
0.998086
0.995734
0.99101
1.00014
0.999947
0.999658
0.999701
0.999818
0.999857
0.999862
0.999871
0.999881
0.999884
0.999878
0.999855
0.999789
0.999624
0.999226
0.998332
0.996433
0.992844
1.00002
0.999951
0.999769
0.999773
0.999847
0.999872
0.999872
0.999877
0.999883
0.999886
0.999881
0.99986
0.999801
0.999656
0.999316
0.99858
0.997089
0.994413
0.999995
1
0.999864
0.999822
0.999858
0.999877
0.999879
0.999882
0.999888
0.99989
0.999886
0.999867
0.999816
0.999692
0.999411
0.998822
0.99768
0.995714
0.999995
1.00002
0.999917
0.999858
0.999872
0.999888
0.999889
0.999891
0.999895
0.999897
0.999893
0.999876
0.999832
0.99973
0.999504
0.999045
0.99819
0.996765
0.999995
1.00002
0.999951
0.999894
0.999893
0.999902
0.999902
0.999903
0.999905
0.999905
0.999901
0.999886
0.99985
0.999767
0.999591
0.999243
0.998616
0.997598
0.999995
1.00002
0.999976
0.999926
0.999916
0.999918
0.999916
0.999915
0.999916
0.999915
0.999911
0.999898
0.999868
0.999804
0.999669
0.999412
0.998962
0.998245
0.999996
1.00002
0.999992
0.999953
0.999938
0.999935
0.999931
0.999927
0.999927
0.999925
0.999921
0.99991
0.999887
0.999837
0.999737
0.999552
0.999235
0.998741
0.999997
1.00001
1
0.999971
0.999954
0.999949
0.999944
0.99994
0.999937
0.999935
0.999931
0.999922
0.999903
0.999865
0.99979
0.999656
0.99943
0.999081
0.999997
1.00001
1.00001
0.999984
0.999968
0.999962
0.999957
0.999952
0.999948
0.999945
0.999942
0.999934
0.999918
0.99989
0.999836
0.99974
0.999581
0.99934
0.999997
1.00001
1.00001
0.999993
0.999981
0.999974
0.999968
0.999964
0.99996
0.999956
0.999953
0.999947
0.999935
0.999915
0.999878
0.999814
0.999711
0.999556
0.999998
1.00001
1.00001
1
0.999991
0.999985
0.999981
0.999977
0.999972
0.999968
0.999964
0.99996
0.999952
0.999939
0.999915
0.999875
0.999814
0.999723
0.999998
1.00001
1.00001
1
0.999998
0.999994
0.999991
0.999988
0.999983
0.999979
0.999975
0.999972
0.999968
0.999959
0.999944
0.999922
0.999888
0.99984
0.999998
1.00001
1.00001
1.00001
1
0.999999
0.999998
0.999996
0.999992
0.999989
0.999985
0.999982
0.999979
0.999975
0.999967
0.999955
0.999938
0.999915
0.999999
1.00001
1.00001
1.00001
1
1
1
0.999998
0.999995
0.999993
0.999993
0.999991
0.999987
0.999983
0.99998
0.999976
0.999968
0.999958
1
1.00001
1.00001
1.00001
1
1
1
0.999999
0.999998
0.999996
0.999994
0.999992
0.99999
0.999988
0.999986
0.999983
0.99998
0.999975
0.999999
1.00001
1.00001
1.00001
1.00001
1
0.999998
0.999996
0.999993
0.999991
0.999989
0.999987
0.999985
0.999982
0.999981
0.999978
0.999976
0.999974
0.999997
1.00001
1.00001
1.00001
1
0.999998
0.999993
0.999988
0.999985
0.999982
0.999979
0.999976
0.999973
0.999972
0.999971
0.999969
0.999967
0.999965
0.999997
1.00001
1.00002
1.00001
0.999995
0.999988
0.999982
0.999975
0.999969
0.999965
0.999964
0.999963
0.99996
0.999959
0.999958
0.999958
0.999957
0.999955
0.999996
1.00003
1.00003
0.999996
0.999972
0.999966
0.999961
0.999956
0.999952
0.999949
0.999948
0.999947
0.999946
0.999945
0.999945
0.999944
0.999944
0.999944
0.999989
1.00005
1.00004
0.999983
0.999948
0.999938
0.999932
0.999929
0.999929
0.999931
0.999932
0.999933
0.999932
0.999933
0.999934
0.999934
0.999935
0.999935
0.99999
1.00004
0.999992
0.999937
0.999931
0.999929
0.999917
0.999909
0.999908
0.99991
0.999912
0.999915
0.999917
0.999918
0.999919
0.999921
0.999924
0.999925
1.00013
1.00009
0.999825
0.999756
0.999837
0.999896
0.999909
0.999912
0.999916
0.999918
0.99992
0.999921
0.999922
0.999922
0.999923
0.999924
0.999925
0.999926
1.0005
1.00053
0.999952
0.999665
0.999667
0.999718
0.999754
0.999789
0.99982
0.999844
0.999861
0.999875
0.999885
0.999893
0.9999
0.999905
0.999909
0.999915
1.00004
1.0008
1.00096
1.0008
1.00056
1.00034
1.00018
1.00009
1.00003
0.999996
0.99997
0.999954
0.999943
0.999935
0.99993
0.999925
0.999921
0.999921
0.994604
0.993791
0.995838
0.997661
0.998662
0.999144
0.999416
0.999594
0.99971
0.999782
0.999829
0.999863
0.999887
0.999905
0.999918
0.999928
0.999933
0.99993
1.00635
1.00419
1.00178
1.00096
1.00054
1.00023
1.00005
0.999977
0.999939
0.999915
0.9999
0.999892
0.999888
0.999886
0.999885
0.999886
0.999888
0.999899
0.583382
0.58336
0.583279
0.583159
0.583014
0.58284
0.582635
0.582402
0.582143
0.581861
0.581556
0.581229
0.580881
0.580514
0.58013
0.579731
0.57932
0.578898
0.578468
0.578034
0.577598
0.577164
0.576734
0.576312
0.575901
0.575503
0.57512
0.574755
0.574407
0.57408
0.573786
0.573547
0.573424
0.573518
0.573638
0.57364
0.573675
0.573705
0.573747
0.573809
0.57387
0.573997
0.574223
0.574453
0.574736
0.57511
0.575519
0.575975
0.576475
0.577018
0.577601
0.578224
0.578884
0.579581
0.580312
0.581076
0.581872
0.582697
0.583551
0.584432
0.585337
0.586265
0.587216
0.588186
0.589174
0.590179
0.591199
0.592233
0.593278
0.594334
0.595398
0.59647
0.597549
0.598631
0.599718
0.600806
0.601895
0.602985
0.604072
0.605158
0.60624
0.607319
0.608392
0.609459
0.61052
0.611573
0.612618
0.613655
0.614682
0.6157
0.616707
0.617703
0.618688
0.619661
0.620621
0.621568
0.622499
0.623413
0.624315
0.625206
0.626081
0.626941
0.627785
0.628613
0.629425
0.630219
0.630997
0.631757
0.632499
0.633222
0.633928
0.634614
0.635281
0.635929
0.636557
0.637164
0.637751
0.638317
0.638861
0.639383
0.639883
0.64036
0.640814
0.641243
0.641647
0.642026
0.64238
0.642709
0.643011
0.643287
0.643537
0.643759
0.643954
0.64412
0.644258
0.644367
0.644446
0.644496
0.644515
0.644503
0.64446
0.644385
0.644277
0.644135
0.643958
0.643746
0.643499
0.643214
0.642893
0.642534
0.642136
0.6417
0.641224
0.640708
0.640152
0.639554
0.638915
0.638233
0.637509
0.636741
0.635928
0.635069
0.634157
0.633181
0.632145
0.631059
0.629928
0.628752
0.62753
0.626263
0.624949
0.623587
0.622179
0.620723
0.619222
0.617676
0.616109
0.614443
0.613002
0.610645
0.584479
0.584446
0.584383
0.584282
0.584152
0.583992
0.583802
0.58358
0.583328
0.583045
0.582735
0.582401
0.582045
0.58167
0.581279
0.580874
0.580457
0.580033
0.579602
0.57917
0.578738
0.578311
0.577892
0.577487
0.5771
0.576737
0.576403
0.576105
0.575846
0.575631
0.575455
0.575305
0.575167
0.574901
0.574578
0.574406
0.574324
0.574325
0.574395
0.574515
0.574699
0.574917
0.575131
0.575414
0.575766
0.576137
0.576546
0.576995
0.577488
0.578023
0.578598
0.579213
0.579865
0.580554
0.581278
0.582034
0.582823
0.583641
0.584487
0.58536
0.586258
0.58718
0.588123
0.589086
0.590067
0.591066
0.592079
0.593105
0.594144
0.595193
0.596251
0.597317
0.598389
0.599466
0.600546
0.601629
0.602712
0.603796
0.604879
0.605959
0.607036
0.60811
0.609178
0.61024
0.611296
0.612345
0.613385
0.614417
0.61544
0.616453
0.617455
0.618447
0.619427
0.620394
0.62135
0.622293
0.623224
0.624144
0.625048
0.625935
0.626807
0.627663
0.628504
0.629328
0.630135
0.630925
0.631698
0.632454
0.633191
0.63391
0.634611
0.635292
0.635955
0.636597
0.63722
0.637822
0.638403
0.638963
0.639502
0.640018
0.640512
0.640983
0.64143
0.641852
0.64225
0.642622
0.642969
0.643291
0.643586
0.643854
0.644096
0.644311
0.644497
0.644655
0.644784
0.644885
0.644955
0.644995
0.645005
0.644984
0.644931
0.644845
0.644727
0.644574
0.644386
0.644162
0.643903
0.643607
0.643273
0.642902
0.642491
0.642042
0.641553
0.641023
0.640452
0.63984
0.639186
0.638489
0.637749
0.636965
0.636136
0.635261
0.634341
0.633378
0.63237
0.631314
0.63021
0.62906
0.627863
0.626619
0.625327
0.623986
0.622598
0.621162
0.619681
0.618155
0.616606
0.614978
0.6135
0.611467
0.586753
0.58668
0.586598
0.586489
0.586349
0.586175
0.585967
0.585728
0.585458
0.58516
0.584836
0.584487
0.584117
0.583728
0.583323
0.582904
0.582474
0.582036
0.581594
0.58115
0.580707
0.58027
0.579841
0.579425
0.579025
0.578645
0.578286
0.57795
0.577637
0.577348
0.577084
0.576848
0.576647
0.576469
0.576316
0.576209
0.576145
0.57613
0.576169
0.576262
0.576413
0.576622
0.576877
0.577175
0.57751
0.577878
0.578286
0.578734
0.579222
0.579751
0.580318
0.580925
0.581568
0.582248
0.582962
0.583709
0.584487
0.585296
0.586132
0.586996
0.587884
0.588797
0.589731
0.590685
0.591658
0.592648
0.593654
0.594673
0.595705
0.596748
0.5978
0.59886
0.599927
0.600999
0.602075
0.603154
0.604234
0.605315
0.606395
0.607474
0.60855
0.609622
0.61069
0.611752
0.612809
0.613858
0.6149
0.615933
0.616958
0.617973
0.618979
0.619973
0.620957
0.621929
0.622888
0.623835
0.624768
0.625688
0.626594
0.627486
0.628363
0.629224
0.63007
0.6309
0.631713
0.632509
0.633288
0.63405
0.634793
0.635519
0.636226
0.636913
0.637582
0.638231
0.63886
0.639468
0.640055
0.640622
0.641166
0.641688
0.642188
0.642665
0.643117
0.643544
0.643947
0.644325
0.644677
0.645003
0.645303
0.645576
0.645821
0.646039
0.646229
0.646391
0.646523
0.646626
0.646698
0.646741
0.646752
0.646732
0.64668
0.646595
0.646476
0.646323
0.646134
0.64591
0.645649
0.645351
0.645015
0.64464
0.644227
0.643774
0.643281
0.642747
0.642172
0.641555
0.640896
0.640194
0.639448
0.638658
0.637824
0.636945
0.636022
0.635058
0.634052
0.633
0.631901
0.630755
0.629561
0.62832
0.62703
0.625692
0.624305
0.62287
0.621388
0.61986
0.618303
0.616676
0.615157
0.613298
0.590158
0.590047
0.589937
0.58981
0.589651
0.589456
0.589226
0.588965
0.588673
0.588353
0.588008
0.587639
0.587249
0.58684
0.586415
0.585977
0.585529
0.585074
0.584614
0.584154
0.583696
0.583243
0.582799
0.582367
0.58195
0.581551
0.581172
0.580816
0.580484
0.580179
0.579906
0.579666
0.579462
0.579289
0.579149
0.579051
0.578995
0.578982
0.579014
0.579092
0.579217
0.579389
0.579607
0.579871
0.58018
0.58053
0.580922
0.581356
0.58183
0.582343
0.582896
0.583487
0.584114
0.584778
0.585475
0.586206
0.586968
0.58776
0.588581
0.589429
0.590302
0.5912
0.592119
0.59306
0.594019
0.594997
0.59599
0.596998
0.598019
0.599051
0.600093
0.601145
0.602203
0.603268
0.604337
0.605411
0.606486
0.607563
0.608639
0.609715
0.610789
0.61186
0.612927
0.61399
0.615047
0.616098
0.617143
0.618179
0.619208
0.620227
0.621237
0.622238
0.623227
0.624206
0.625172
0.626127
0.627069
0.627997
0.628913
0.629813
0.6307
0.631571
0.632427
0.633267
0.634091
0.634898
0.635689
0.636462
0.637217
0.637954
0.638673
0.639373
0.640054
0.640715
0.641356
0.641977
0.642577
0.643155
0.643712
0.644246
0.644758
0.645246
0.64571
0.646149
0.646563
0.646952
0.647315
0.647652
0.647962
0.648245
0.648501
0.648728
0.648927
0.649097
0.649238
0.649349
0.649429
0.649479
0.649497
0.649483
0.649436
0.649357
0.649242
0.649093
0.648908
0.648687
0.648429
0.648133
0.647799
0.647426
0.647013
0.646561
0.646068
0.645533
0.644957
0.644339
0.643678
0.642973
0.642225
0.641433
0.640596
0.639715
0.638789
0.637821
0.636809
0.635751
0.634647
0.633496
0.632297
0.63105
0.629755
0.628411
0.627018
0.625575
0.624085
0.622546
0.620972
0.61933
0.617774
0.615976
0.594672
0.594522
0.594387
0.594243
0.594064
0.593847
0.593593
0.593307
0.592989
0.592644
0.592272
0.591876
0.591459
0.591025
0.590574
0.590111
0.589638
0.589159
0.588675
0.588192
0.587711
0.587236
0.58677
0.586316
0.585878
0.585457
0.585058
0.584683
0.584334
0.584014
0.583726
0.583473
0.583253
0.583068
0.582919
0.58281
0.582744
0.582719
0.582738
0.582801
0.582909
0.583062
0.583258
0.583499
0.583784
0.584112
0.584483
0.584895
0.585347
0.58584
0.586371
0.58694
0.587546
0.588188
0.588864
0.589573
0.590313
0.591084
0.591884
0.592712
0.593565
0.594442
0.595343
0.596265
0.597207
0.598167
0.599144
0.600136
0.601143
0.602161
0.603191
0.60423
0.605278
0.606332
0.607393
0.608458
0.609526
0.610596
0.611668
0.612739
0.61381
0.614878
0.615944
0.617006
0.618064
0.619116
0.620163
0.621202
0.622234
0.623258
0.624274
0.62528
0.626276
0.627262
0.628236
0.629199
0.63015
0.631089
0.632014
0.632926
0.633823
0.634706
0.635574
0.636427
0.637264
0.638084
0.638888
0.639675
0.640445
0.641196
0.64193
0.642644
0.64334
0.644016
0.644672
0.645307
0.645922
0.646516
0.647087
0.647636
0.648163
0.648665
0.649143
0.649597
0.650025
0.650427
0.650804
0.651154
0.651477
0.651772
0.65204
0.652279
0.652489
0.65267
0.652821
0.652941
0.653031
0.653089
0.653116
0.653109
0.65307
0.652996
0.652888
0.652744
0.652564
0.652346
0.652091
0.651798
0.651466
0.651095
0.650684
0.650231
0.649738
0.649203
0.648626
0.648006
0.647343
0.646636
0.645885
0.645089
0.644249
0.643364
0.642434
0.64146
0.640441
0.639376
0.638265
0.637106
0.6359
0.634647
0.633344
0.631993
0.630591
0.62914
0.627639
0.626088
0.624496
0.622838
0.621252
0.619452
0.600309
0.600129
0.599972
0.599809
0.59961
0.599369
0.59909
0.598776
0.59843
0.598054
0.597651
0.597225
0.596778
0.596312
0.595831
0.595338
0.594835
0.594326
0.593815
0.593303
0.592795
0.592294
0.591802
0.591323
0.590861
0.590417
0.589996
0.589599
0.58923
0.58889
0.588583
0.58831
0.588071
0.587868
0.587702
0.587576
0.58749
0.587447
0.587447
0.587489
0.587576
0.587706
0.58788
0.588097
0.588358
0.58866
0.589005
0.58939
0.589816
0.590281
0.590786
0.591327
0.591906
0.59252
0.593169
0.59385
0.594564
0.595308
0.596082
0.596883
0.59771
0.598563
0.599439
0.600338
0.601257
0.602195
0.603151
0.604123
0.60511
0.60611
0.607123
0.608146
0.609179
0.61022
0.611267
0.61232
0.613378
0.614439
0.615502
0.616567
0.617632
0.618695
0.619757
0.620817
0.621873
0.622925
0.623972
0.625012
0.626047
0.627074
0.628094
0.629105
0.630107
0.6311
0.632082
0.633053
0.634013
0.634961
0.635897
0.636819
0.637728
0.638624
0.639504
0.64037
0.641221
0.642055
0.642874
0.643675
0.64446
0.645227
0.645976
0.646706
0.647417
0.64811
0.648782
0.649434
0.650065
0.650674
0.651262
0.651828
0.65237
0.652888
0.653382
0.653851
0.654295
0.654712
0.655103
0.655468
0.655804
0.656114
0.656395
0.656646
0.656869
0.657061
0.657224
0.657355
0.657454
0.657522
0.657557
0.657559
0.657527
0.657461
0.657358
0.65722
0.657044
0.656831
0.656579
0.656289
0.655959
0.655589
0.655178
0.654726
0.654233
0.653697
0.653118
0.652495
0.651829
0.651119
0.650364
0.649564
0.648718
0.647828
0.646892
0.645911
0.644885
0.643813
0.642694
0.641528
0.640314
0.639052
0.637742
0.636382
0.634971
0.63351
0.631998
0.630433
0.628824
0.627148
0.625536
0.623704
0.607098
0.606898
0.606722
0.60654
0.606319
0.606052
0.605746
0.605402
0.605024
0.604616
0.604181
0.60372
0.603239
0.602738
0.602223
0.601696
0.60116
0.600618
0.600075
0.599532
0.598993
0.598462
0.597942
0.597435
0.596946
0.596476
0.596029
0.595608
0.595215
0.594852
0.594521
0.594224
0.593962
0.593736
0.593547
0.593398
0.59329
0.593222
0.593197
0.593214
0.593274
0.593377
0.593522
0.59371
0.593941
0.594213
0.594526
0.594879
0.595273
0.595706
0.596177
0.596686
0.597231
0.597812
0.598427
0.599075
0.599756
0.600467
0.601208
0.601978
0.602774
0.603596
0.604442
0.605312
0.606202
0.607113
0.608042
0.608989
0.609952
0.610929
0.611919
0.612921
0.613934
0.614956
0.615987
0.617024
0.618067
0.619115
0.620166
0.621219
0.622274
0.623329
0.624384
0.625438
0.626489
0.627537
0.628582
0.629621
0.630656
0.631684
0.632706
0.63372
0.634726
0.635723
0.636711
0.637689
0.638656
0.639613
0.640557
0.64149
0.64241
0.643316
0.644209
0.645087
0.64595
0.646798
0.647631
0.648447
0.649246
0.650029
0.650793
0.651539
0.652267
0.652975
0.653664
0.654332
0.65498
0.655606
0.656211
0.656793
0.657351
0.657886
0.658396
0.658881
0.65934
0.659773
0.66018
0.660559
0.660911
0.661234
0.661529
0.661794
0.662029
0.662234
0.662407
0.66255
0.66266
0.662738
0.662782
0.662792
0.662768
0.662708
0.662612
0.662479
0.662309
0.662099
0.661851
0.661563
0.661235
0.660866
0.660456
0.660004
0.659509
0.658971
0.65839
0.657765
0.657095
0.65638
0.65562
0.654815
0.653964
0.653068
0.652125
0.651137
0.650103
0.649022
0.647895
0.64672
0.645498
0.644227
0.642907
0.641538
0.640118
0.638646
0.637122
0.635544
0.633918
0.632224
0.630586
0.628711
0.615085
0.61487
0.614677
0.614475
0.61423
0.613937
0.613601
0.613226
0.612816
0.612373
0.611902
0.611405
0.610886
0.610349
0.609797
0.609232
0.60866
0.608082
0.607503
0.606926
0.606354
0.605791
0.605239
0.604701
0.604182
0.603683
0.603207
0.602758
0.602337
0.601946
0.601587
0.601262
0.600972
0.600718
0.600502
0.600325
0.600187
0.60009
0.600035
0.600021
0.600048
0.600118
0.60023
0.600384
0.600579
0.600814
0.601091
0.601407
0.601762
0.602157
0.602589
0.603058
0.603564
0.604105
0.604681
0.60529
0.605931
0.606604
0.607306
0.608037
0.608796
0.609581
0.610391
0.611225
0.612081
0.612958
0.613854
0.614769
0.615701
0.616649
0.617611
0.618587
0.619574
0.620572
0.62158
0.622595
0.623618
0.624647
0.62568
0.626718
0.627758
0.6288
0.629843
0.630886
0.631928
0.632969
0.634006
0.63504
0.636071
0.637096
0.638116
0.639129
0.640135
0.641134
0.642125
0.643106
0.644078
0.64504
0.645991
0.646931
0.647859
0.648774
0.649677
0.650565
0.65144
0.652299
0.653144
0.653973
0.654785
0.655581
0.65636
0.657121
0.657863
0.658586
0.65929
0.659974
0.660637
0.66128
0.6619
0.662498
0.663072
0.663622
0.664148
0.664649
0.665123
0.665572
0.665993
0.666387
0.666753
0.66709
0.667398
0.667676
0.667924
0.668141
0.668326
0.66848
0.6686
0.668687
0.668741
0.66876
0.668743
0.66869
0.6686
0.668473
0.668307
0.668101
0.667856
0.667571
0.667244
0.666876
0.666466
0.666013
0.665517
0.664977
0.664393
0.663764
0.66309
0.662371
0.661606
0.660795
0.659937
0.659034
0.658084
0.657088
0.656045
0.654956
0.653819
0.652635
0.651403
0.650123
0.648793
0.647414
0.645984
0.644501
0.642965
0.641373
0.639733
0.63802
0.636357
0.634438
0.624325
0.624098
0.623888
0.623663
0.623392
0.623071
0.622705
0.622297
0.621852
0.621373
0.620865
0.620329
0.619772
0.619195
0.618603
0.617999
0.617388
0.616772
0.616155
0.61554
0.614932
0.614332
0.613745
0.613174
0.612621
0.612089
0.611581
0.611099
0.610646
0.610223
0.609832
0.609475
0.609152
0.608866
0.608617
0.608406
0.608234
0.608102
0.608011
0.60796
0.60795
0.607981
0.608054
0.608167
0.60832
0.608514
0.608747
0.60902
0.609332
0.609681
0.610068
0.610492
0.610952
0.611447
0.611977
0.61254
0.613135
0.613762
0.614419
0.615105
0.615819
0.61656
0.617327
0.618118
0.618932
0.619768
0.620625
0.621502
0.622396
0.623308
0.624235
0.625176
0.626131
0.627098
0.628076
0.629063
0.630059
0.631062
0.632072
0.633086
0.634106
0.635128
0.636153
0.637179
0.638206
0.639232
0.640258
0.641281
0.642301
0.643318
0.64433
0.645338
0.64634
0.647335
0.648323
0.649304
0.650276
0.651238
0.652192
0.653134
0.654066
0.654987
0.655895
0.65679
0.657672
0.65854
0.659393
0.660231
0.661054
0.661861
0.66265
0.663423
0.664177
0.664913
0.66563
0.666327
0.667004
0.667659
0.668293
0.668905
0.669493
0.670058
0.670597
0.671112
0.671601
0.672063
0.672498
0.672905
0.673284
0.673634
0.673954
0.674244
0.674504
0.674732
0.674928
0.675091
0.675221
0.675318
0.675379
0.675406
0.675396
0.67535
0.675265
0.675143
0.674981
0.674779
0.674536
0.674253
0.673927
0.67356
0.673149
0.672695
0.672197
0.671655
0.671068
0.670435
0.669757
0.669032
0.668261
0.667444
0.66658
0.665669
0.664711
0.663707
0.662655
0.661556
0.66041
0.659217
0.657975
0.656684
0.655345
0.653955
0.652515
0.651021
0.649474
0.64787
0.646215
0.644484
0.6428
0.64084
0.634878
0.63464
0.634411
0.634162
0.633864
0.633514
0.633115
0.632673
0.632192
0.631675
0.631126
0.630551
0.629952
0.629333
0.628699
0.628053
0.6274
0.626743
0.626085
0.62543
0.624782
0.624144
0.623518
0.622909
0.622319
0.62175
0.621206
0.620687
0.620198
0.619738
0.61931
0.618916
0.618556
0.618232
0.617945
0.617695
0.617483
0.617311
0.617178
0.617084
0.617031
0.617018
0.617044
0.617111
0.617217
0.617362
0.617547
0.617769
0.61803
0.618329
0.618664
0.619036
0.619443
0.619885
0.620362
0.620871
0.621413
0.621987
0.622591
0.623224
0.623886
0.624576
0.625291
0.626032
0.626797
0.627584
0.628394
0.629223
0.630072
0.630939
0.631823
0.632723
0.633637
0.634564
0.635504
0.636455
0.637416
0.638385
0.639363
0.640347
0.641337
0.642332
0.643331
0.644333
0.645337
0.646342
0.647347
0.648352
0.649355
0.650356
0.651355
0.652349
0.65334
0.654325
0.655304
0.656277
0.657243
0.6582
0.65915
0.66009
0.66102
0.661939
0.662847
0.663744
0.664628
0.665499
0.666356
0.667199
0.668027
0.66884
0.669636
0.670416
0.671178
0.671923
0.672648
0.673355
0.674041
0.674707
0.675352
0.675974
0.676573
0.677148
0.677699
0.678225
0.678724
0.679198
0.679644
0.680062
0.680452
0.680813
0.681143
0.681444
0.681713
0.68195
0.682155
0.682327
0.682465
0.682569
0.682638
0.682671
0.682668
0.682626
0.682546
0.682428
0.682269
0.68207
0.681829
0.681547
0.681222
0.680855
0.680443
0.679988
0.679488
0.678942
0.678351
0.677714
0.677031
0.676301
0.675524
0.6747
0.673829
0.672911
0.671945
0.670932
0.669871
0.668763
0.667608
0.666404
0.665153
0.663852
0.662503
0.661103
0.659653
0.658149
0.656591
0.654975
0.653308
0.651563
0.64986
0.647864
0.646812
0.646563
0.646314
0.646039
0.645712
0.64533
0.644897
0.644418
0.643898
0.643341
0.64275
0.642132
0.641489
0.640826
0.640147
0.639456
0.638758
0.638056
0.637354
0.636655
0.635964
0.635283
0.634615
0.633964
0.633333
0.632723
0.632137
0.631578
0.631047
0.630546
0.630077
0.62964
0.629238
0.62887
0.628539
0.628245
0.627988
0.627769
0.627588
0.627446
0.627343
0.627279
0.627254
0.627268
0.62732
0.627411
0.627539
0.627705
0.627909
0.628149
0.628425
0.628738
0.629085
0.629467
0.629882
0.630331
0.630812
0.631324
0.631867
0.63244
0.633042
0.633671
0.634327
0.635008
0.635715
0.636445
0.637197
0.637971
0.638765
0.639578
0.640409
0.641258
0.642122
0.643
0.643893
0.644797
0.645714
0.64664
0.647576
0.648521
0.649472
0.65043
0.651394
0.652362
0.653333
0.654308
0.655284
0.656261
0.657238
0.658215
0.659191
0.660164
0.661134
0.662101
0.663063
0.66402
0.664972
0.665916
0.666854
0.667783
0.668704
0.669616
0.670517
0.671408
0.672287
0.673154
0.674009
0.67485
0.675677
0.67649
0.677287
0.678068
0.678833
0.67958
0.680309
0.68102
0.681711
0.682382
0.683032
0.68366
0.684266
0.684848
0.685406
0.685939
0.686446
0.686927
0.68738
0.687806
0.688204
0.688572
0.68891
0.689218
0.689494
0.689738
0.68995
0.690128
0.690272
0.690382
0.690456
0.690494
0.690494
0.690457
0.69038
0.690264
0.690107
0.68991
0.68967
0.689388
0.689063
0.688695
0.688282
0.687824
0.687322
0.686773
0.686178
0.685537
0.684848
0.684113
0.68333
0.682499
0.681621
0.680695
0.679721
0.678699
0.67763
0.676513
0.675348
0.674135
0.672874
0.671564
0.670205
0.668796
0.667336
0.665823
0.664256
0.662631
0.660953
0.659195
0.657477
0.655453
0.660205
0.659943
0.659672
0.659369
0.65901
0.658593
0.658122
0.657604
0.657041
0.65644
0.655805
0.655139
0.654449
0.653737
0.65301
0.652271
0.651524
0.650773
0.650023
0.649276
0.648538
0.647809
0.647095
0.646398
0.64572
0.645064
0.644432
0.643827
0.64325
0.642702
0.642186
0.641702
0.641251
0.640835
0.640454
0.640109
0.6398
0.639529
0.639295
0.639098
0.638939
0.638818
0.638734
0.638688
0.63868
0.638709
0.638774
0.638877
0.639015
0.63919
0.6394
0.639645
0.639924
0.640238
0.640584
0.640964
0.641375
0.641818
0.642291
0.642793
0.643325
0.643885
0.644472
0.645085
0.645723
0.646385
0.64707
0.647778
0.648507
0.649256
0.650024
0.65081
0.651613
0.652432
0.653266
0.654114
0.654975
0.655847
0.65673
0.657624
0.658526
0.659436
0.660353
0.661276
0.662205
0.663138
0.664074
0.665013
0.665954
0.666896
0.667838
0.668779
0.66972
0.670658
0.671593
0.672525
0.673452
0.674374
0.67529
0.6762
0.677103
0.677997
0.678883
0.679759
0.680625
0.68148
0.682324
0.683155
0.683974
0.684779
0.68557
0.686345
0.687105
0.687848
0.688574
0.689282
0.689972
0.690642
0.691291
0.69192
0.692526
0.693109
0.693669
0.694204
0.694713
0.695197
0.695654
0.696083
0.696484
0.696856
0.697197
0.697508
0.697788
0.698036
0.698251
0.698433
0.698581
0.698693
0.69877
0.69881
0.698812
0.698777
0.698701
0.698586
0.69843
0.698233
0.697993
0.69771
0.697384
0.697013
0.696598
0.696138
0.695632
0.695079
0.69448
0.693834
0.69314
0.692399
0.69161
0.690773
0.689887
0.688954
0.687972
0.686942
0.685864
0.684738
0.683565
0.682343
0.681073
0.679754
0.678387
0.676969
0.675501
0.67398
0.672405
0.670772
0.669086
0.667319
0.66559
0.663544
0.675143
0.674866
0.67457
0.674234
0.673839
0.673382
0.67287
0.672306
0.671697
0.671047
0.670361
0.669644
0.6689
0.668136
0.667355
0.666561
0.66576
0.664956
0.664152
0.663353
0.662561
0.661781
0.661015
0.660265
0.659536
0.658829
0.658145
0.657488
0.656859
0.656259
0.65569
0.655152
0.654647
0.654176
0.65374
0.653338
0.652971
0.65264
0.652346
0.652088
0.651866
0.65168
0.651531
0.651419
0.651342
0.651302
0.651297
0.651328
0.651394
0.651495
0.65163
0.6518
0.652003
0.652239
0.652508
0.652809
0.653141
0.653504
0.653898
0.654321
0.654773
0.655252
0.655759
0.656293
0.656852
0.657435
0.658043
0.658673
0.659325
0.659998
0.660691
0.661403
0.662133
0.66288
0.663643
0.664422
0.665214
0.66602
0.666839
0.667668
0.668508
0.669358
0.670216
0.671083
0.671956
0.672835
0.673719
0.674607
0.675499
0.676394
0.677291
0.678189
0.679087
0.679985
0.680882
0.681777
0.682669
0.683557
0.684442
0.685321
0.686194
0.687061
0.687921
0.688772
0.689615
0.690449
0.691272
0.692085
0.692885
0.693674
0.694449
0.69521
0.695956
0.696687
0.697402
0.6981
0.69878
0.699442
0.700084
0.700705
0.701305
0.701883
0.702438
0.702969
0.703475
0.703956
0.70441
0.704837
0.705236
0.705607
0.705947
0.706258
0.706537
0.706784
0.706999
0.70718
0.707328
0.70744
0.707516
0.707556
0.707558
0.707521
0.707445
0.707328
0.707171
0.706972
0.70673
0.706445
0.706116
0.705743
0.705325
0.704861
0.704351
0.703794
0.70319
0.702538
0.701839
0.701092
0.700297
0.699453
0.698561
0.69762
0.696631
0.695594
0.694508
0.693374
0.692192
0.690962
0.689684
0.688357
0.686982
0.685557
0.684082
0.682555
0.680974
0.679336
0.677645
0.675871
0.674136
0.672075
0.691721
0.691426
0.6911
0.690726
0.690288
0.689786
0.689224
0.688609
0.687945
0.687238
0.686494
0.685717
0.684913
0.684088
0.683245
0.682391
0.681529
0.680664
0.6798
0.678941
0.67809
0.677251
0.676427
0.67562
0.674832
0.674067
0.673326
0.672611
0.671924
0.671265
0.670636
0.670039
0.669473
0.668941
0.668441
0.667975
0.667544
0.667147
0.666785
0.666458
0.666167
0.66591
0.665688
0.665501
0.665348
0.665231
0.665147
0.665098
0.665083
0.665101
0.665153
0.665238
0.665355
0.665504
0.665685
0.665898
0.666141
0.666414
0.666717
0.667049
0.66741
0.667799
0.668214
0.668656
0.669124
0.669617
0.670133
0.670673
0.671236
0.67182
0.672425
0.67305
0.673693
0.674355
0.675034
0.67573
0.676441
0.677167
0.677906
0.678658
0.679423
0.680198
0.680984
0.681779
0.682582
0.683394
0.684212
0.685037
0.685866
0.686701
0.687539
0.68838
0.689223
0.690068
0.690913
0.691759
0.692603
0.693445
0.694285
0.695122
0.695954
0.696782
0.697604
0.69842
0.699228
0.700029
0.700821
0.701604
0.702376
0.703137
0.703887
0.704624
0.705347
0.706057
0.706752
0.70743
0.708092
0.708737
0.709363
0.709969
0.710555
0.71112
0.711663
0.712183
0.712679
0.71315
0.713595
0.714014
0.714405
0.714769
0.715103
0.715407
0.71568
0.715922
0.716132
0.716309
0.716452
0.71656
0.716632
0.716668
0.716666
0.716625
0.716545
0.716425
0.716264
0.716061
0.715815
0.715527
0.715194
0.714816
0.714393
0.713925
0.71341
0.712848
0.712239
0.711582
0.710877
0.710125
0.709323
0.708473
0.707574
0.706627
0.705631
0.704586
0.703493
0.702352
0.701163
0.699926
0.69864
0.697307
0.695925
0.694495
0.693014
0.691483
0.689898
0.688256
0.686563
0.684787
0.683049
0.68098
0.710046
0.709728
0.709365
0.708947
0.708458
0.7079
0.707278
0.706599
0.705869
0.705094
0.704279
0.703431
0.702556
0.701659
0.700745
0.699819
0.698887
0.697953
0.69702
0.696093
0.695175
0.694269
0.693379
0.692506
0.691654
0.690823
0.690018
0.689237
0.688484
0.68776
0.687065
0.6864
0.685767
0.685165
0.684596
0.684059
0.683555
0.683085
0.682648
0.682244
0.681873
0.681537
0.681233
0.680963
0.680726
0.680522
0.680351
0.680213
0.680107
0.680033
0.679991
0.679981
0.680002
0.680054
0.680136
0.680249
0.680391
0.680564
0.680765
0.680994
0.681251
0.681536
0.681848
0.682186
0.682549
0.682938
0.68335
0.683787
0.684246
0.684727
0.685229
0.685752
0.686295
0.686858
0.687438
0.688036
0.68865
0.689281
0.689927
0.690586
0.69126
0.691946
0.692644
0.693353
0.694073
0.694802
0.69554
0.696285
0.697038
0.697798
0.698563
0.699333
0.700107
0.700884
0.701664
0.702446
0.703228
0.704011
0.704794
0.705574
0.706353
0.707128
0.7079
0.708668
0.70943
0.710185
0.710934
0.711675
0.712408
0.713131
0.713844
0.714546
0.715236
0.715914
0.716578
0.717228
0.717862
0.71848
0.719081
0.719664
0.720227
0.720771
0.721293
0.721794
0.722271
0.722725
0.723155
0.723558
0.723935
0.724285
0.724606
0.724899
0.725161
0.725392
0.725592
0.725759
0.725893
0.725992
0.726057
0.726084
0.726075
0.726027
0.72594
0.725814
0.725646
0.725437
0.725185
0.72489
0.724551
0.724168
0.723739
0.723265
0.722744
0.722176
0.721561
0.720899
0.720188
0.719429
0.718622
0.717766
0.716861
0.715907
0.714904
0.713853
0.712754
0.711607
0.710411
0.709168
0.707877
0.706538
0.705152
0.703717
0.702233
0.700698
0.699112
0.69747
0.695777
0.694002
0.692264
0.690194
0.730881
0.730529
0.730118
0.72964
0.729083
0.72845
0.727748
0.726984
0.726166
0.7253
0.724394
0.723455
0.722488
0.721499
0.720496
0.719482
0.718463
0.717443
0.716426
0.715417
0.714418
0.713433
0.712464
0.711513
0.710584
0.709677
0.708794
0.707937
0.707107
0.706306
0.705533
0.704789
0.704076
0.703393
0.702742
0.702121
0.701532
0.700975
0.70045
0.699956
0.699494
0.699063
0.698665
0.698297
0.697962
0.697657
0.697384
0.697141
0.696929
0.696747
0.696596
0.696475
0.696384
0.696322
0.696289
0.696285
0.69631
0.696363
0.696445
0.696553
0.696689
0.696852
0.697041
0.697256
0.697496
0.697761
0.698051
0.698363
0.6987
0.699058
0.699439
0.69984
0.700262
0.700705
0.701166
0.701646
0.702144
0.70266
0.703191