/*--------------------------------*- C++ -*----------------------------------*\
  =========                 |
  \\      /  F ield         | OpenFOAM: The Open Source CFD Toolbox
   \\    /   O peration     | Website:  https://openfoam.org
    \\  /    A nd           | Version:  7
     \\/     M anipulation  |
\*---------------------------------------------------------------------------*/
FoamFile
{
    version     2.0;
    format      ascii;
    class       volScalarField;
    location    "0.09";
    object      T;
}
// * * * * * * * * * * * * * * * * * * * * * * * * * * * * * * * * * * * * * //

dimensions      [0 0 0 1 0 0 0];

internalField   nonuniform List<scalar> 
12225
(
1.00689
1.0041
1.00171
1.00089
1.00043
1.00012
0.999964
0.999897
0.999865
0.999844
0.999829
0.999806
0.999758
0.999633
0.999313
0.998559
0.996479
0.991998
0.995136
0.994812
0.996745
0.998334
0.999127
0.999464
0.999644
0.999763
0.999838
0.999879
0.999898
0.999898
0.999862
0.99975
0.999444
0.998721
0.996866
0.99267
0.999619
1.00005
1.00023
1.00028
1.0002
1.00008
0.999991
0.999952
0.999933
0.999917
0.999901
0.999877
0.999828
0.999712
0.999422
0.99875
0.997134
0.993749
1.00032
1.00017
0.999777
0.999749
0.999819
0.999835
0.999837
0.99985
0.999864
0.999871
0.999871
0.99986
0.999822
0.999721
0.999465
0.998873
0.997537
0.994881
1.00014
0.999947
0.999658
0.999701
0.999818
0.999857
0.999862
0.999871
0.999881
0.999886
0.999885
0.999874
0.999838
0.999745
0.999519
0.999014
0.997937
0.99591
1.00002
0.999951
0.999769
0.999773
0.999847
0.999872
0.999872
0.999877
0.999884
0.999888
0.999887
0.999877
0.999844
0.999763
0.999571
0.999155
0.99831
0.996796
0.999995
1
0.999864
0.999822
0.999858
0.999877
0.999879
0.999882
0.999888
0.999892
0.999892
0.999882
0.999854
0.999785
0.999626
0.999293
0.998646
0.997533
0.999995
1.00002
0.999917
0.999858
0.999872
0.999888
0.999889
0.999891
0.999896
0.999899
0.999898
0.999889
0.999865
0.999808
0.999681
0.999421
0.998937
0.99813
0.999995
1.00002
0.999951
0.999894
0.999893
0.999902
0.999902
0.999903
0.999905
0.999907
0.999906
0.999898
0.999877
0.999832
0.999732
0.999535
0.99918
0.998604
0.999995
1.00002
0.999976
0.999926
0.999916
0.999918
0.999916
0.999915
0.999916
0.999916
0.999914
0.999907
0.999891
0.999855
0.999779
0.999634
0.999379
0.998973
0.999996
1.00002
0.999992
0.999953
0.999938
0.999935
0.999931
0.999928
0.999927
0.999927
0.999924
0.999918
0.999905
0.999877
0.99982
0.999716
0.999536
0.999256
0.999997
1.00001
1
0.999971
0.999954
0.999949
0.999944
0.99994
0.999938
0.999936
0.999933
0.999928
0.999917
0.999896
0.999853
0.999777
0.999649
0.999452
0.999997
1.00001
1.00001
0.999984
0.999968
0.999962
0.999957
0.999952
0.999948
0.999945
0.999944
0.999939
0.999929
0.999913
0.999883
0.999827
0.999738
0.999601
0.999997
1.00001
1.00001
0.999993
0.999981
0.999974
0.999968
0.999964
0.99996
0.999957
0.999955
0.999951
0.999943
0.999931
0.99991
0.999873
0.999815
0.999727
0.999998
1.00001
1.00001
1
0.999991
0.999985
0.999981
0.999977
0.999973
0.999968
0.999965
0.999962
0.999958
0.999949
0.999935
0.999912
0.999876
0.999825
0.999998
1.00001
1.00001
1
0.999998
0.999994
0.999991
0.999988
0.999983
0.99998
0.999976
0.999974
0.999971
0.999965
0.999955
0.999942
0.999922
0.999894
0.999998
1.00001
1.00001
1.00001
1
0.999999
0.999998
0.999996
0.999992
0.999989
0.999985
0.999983
0.999981
0.999978
0.999973
0.999964
0.999954
0.999941
0.999999
1.00001
1.00001
1.00001
1
1
1
0.999998
0.999995
0.999993
0.999993
0.999992
0.999988
0.999985
0.999982
0.99998
0.999975
0.999969
1
1.00001
1.00001
1.00001
1
1
1
0.999999
0.999998
0.999996
0.999994
0.999992
0.99999
0.999988
0.999987
0.999985
0.999982
0.999978
0.999999
1.00001
1.00001
1.00001
1.00001
1
0.999998
0.999996
0.999993
0.999991
0.999989
0.999987
0.999985
0.999982
0.999981
0.999979
0.999977
0.999975
0.999997
1.00001
1.00001
1.00001
1
0.999998
0.999993
0.999988
0.999985
0.999982
0.999979
0.999976
0.999973
0.999972
0.999971
0.999969
0.999968
0.999966
0.999997
1.00001
1.00002
1.00001
0.999995
0.999988
0.999982
0.999975
0.999969
0.999965
0.999964
0.999963
0.99996
0.999959
0.999958
0.999958
0.999957
0.999955
0.999996
1.00003
1.00003
0.999996
0.999972
0.999966
0.999961
0.999956
0.999952
0.999949
0.999948
0.999947
0.999946
0.999945
0.999945
0.999944
0.999944
0.999944
0.999989
1.00005
1.00004
0.999983
0.999948
0.999938
0.999932
0.999929
0.999929
0.999931
0.999932
0.999933
0.999932
0.999933
0.999934
0.999935
0.999935
0.999936
0.99999
1.00004
0.999992
0.999937
0.999931
0.999929
0.999917
0.999909
0.999908
0.99991
0.999912
0.999915
0.999917
0.999918
0.999919
0.999921
0.999924
0.999925
1.00013
1.00009
0.999825
0.999756
0.999837
0.999896
0.999909
0.999912
0.999916
0.999918
0.99992
0.999921
0.999922
0.999922
0.999923
0.999924
0.999925
0.999926
1.0005
1.00053
0.999952
0.999665
0.999667
0.999718
0.999754
0.999789
0.99982
0.999844
0.999861
0.999875
0.999885
0.999893
0.9999
0.999905
0.999909
0.999915
1.00004
1.0008
1.00096
1.0008
1.00056
1.00034
1.00018
1.00009
1.00003
0.999996
0.99997
0.999954
0.999943
0.999935
0.99993
0.999925
0.999921
0.999921
0.994604
0.993791
0.995838
0.997661
0.998662
0.999144
0.999416
0.999594
0.99971
0.999782
0.999829
0.999863
0.999887
0.999905
0.999918
0.999928
0.999933
0.99993
1.00635
1.00419
1.00178
1.00096
1.00054
1.00023
1.00005
0.999977
0.999939
0.999915
0.9999
0.999892
0.999888
0.999886
0.999885
0.999886
0.999888
0.999899
0.764071
0.764078
0.764042
0.763992
0.763944
0.763895
0.763841
0.763784
0.763728
0.763674
0.763622
0.763571
0.763523
0.763478
0.763436
0.763398
0.763365
0.763339
0.76332
0.763311
0.763311
0.763324
0.76335
0.763391
0.763448
0.763522
0.763612
0.763718
0.763838
0.763973
0.764137
0.764358
0.764713
0.765334
0.765967
0.766415
0.766878
0.767305
0.767716
0.768119
0.768487
0.768908
0.769424
0.769909
0.770428
0.771029
0.771642
0.772278
0.772936
0.773614
0.774309
0.77502
0.775746
0.776485
0.777235
0.777996
0.778767
0.779547
0.780334
0.781127
0.781925
0.782728
0.783535
0.784344
0.785155
0.785967
0.786779
0.78759
0.7884
0.789208
0.790014
0.790816
0.791615
0.79241
0.7932
0.793984
0.794763
0.795537
0.796304
0.797064
0.797818
0.798564
0.799304
0.800036
0.80076
0.801476
0.802184
0.802885
0.803577
0.804262
0.804938
0.805606
0.806266
0.806916
0.807558
0.808191
0.808811
0.80942
0.810022
0.810618
0.811205
0.811783
0.812352
0.812912
0.813462
0.814003
0.814535
0.815056
0.815569
0.816071
0.816564
0.817048
0.817521
0.817985
0.81844
0.818884
0.819318
0.819743
0.820157
0.820561
0.820954
0.821337
0.821708
0.822068
0.822416
0.822752
0.823077
0.823391
0.823694
0.823985
0.824264
0.824533
0.824789
0.825034
0.825268
0.82549
0.825701
0.825899
0.826087
0.826262
0.826426
0.826578
0.826717
0.826843
0.826955
0.827054
0.827138
0.827209
0.827265
0.827307
0.827335
0.827347
0.827345
0.827328
0.827296
0.827248
0.827185
0.827107
0.827012
0.826902
0.826775
0.826629
0.826457
0.826244
0.825996
0.825726
0.825442
0.825144
0.824832
0.824507
0.824167
0.823814
0.823445
0.823062
0.822666
0.82225
0.82184
0.821311
0.821059
0.819467
0.764679
0.764672
0.764664
0.764643
0.76462
0.764594
0.764564
0.764528
0.764486
0.764437
0.764384
0.76433
0.764276
0.764225
0.764179
0.764138
0.764105
0.764079
0.764064
0.764061
0.764071
0.764098
0.764142
0.764209
0.764302
0.764424
0.764582
0.76478
0.765021
0.765308
0.765631
0.765971
0.766307
0.766451
0.766491
0.766708
0.767015
0.767402
0.76785
0.768332
0.768863
0.769405
0.769907
0.770463
0.771074
0.771673
0.772285
0.772915
0.773564
0.774232
0.774918
0.775621
0.776338
0.777068
0.777811
0.778565
0.779329
0.780101
0.780881
0.781667
0.782458
0.783254
0.784054
0.784856
0.785661
0.786466
0.787271
0.788076
0.788879
0.789681
0.790479
0.791275
0.792067
0.792855
0.793639
0.794417
0.795189
0.795956
0.796717
0.79747
0.798218
0.798958
0.79969
0.800415
0.801133
0.801842
0.802543
0.803236
0.803921
0.804598
0.805266
0.805926
0.806577
0.807219
0.807852
0.808478
0.809096
0.809708
0.810309
0.810899
0.811479
0.812049
0.81261
0.813161
0.813702
0.814234
0.814756
0.815268
0.815771
0.816264
0.816747
0.81722
0.817683
0.818137
0.818581
0.819014
0.819438
0.819851
0.820254
0.820646
0.821028
0.821399
0.821759
0.822106
0.822442
0.822766
0.823079
0.82338
0.82367
0.823948
0.824214
0.824469
0.824712
0.824944
0.825164
0.825372
0.825568
0.825752
0.825925
0.826085
0.826234
0.82637
0.826493
0.826603
0.826699
0.826781
0.826849
0.826902
0.826941
0.826965
0.826975
0.826969
0.826948
0.826911
0.826859
0.826792
0.826708
0.826609
0.826494
0.826361
0.826212
0.826044
0.82586
0.825662
0.82545
0.825219
0.82497
0.824705
0.824425
0.824129
0.823817
0.82349
0.823148
0.822791
0.82242
0.822033
0.821649
0.821176
0.820884
0.819756
0.766002
0.765948
0.76592
0.765896
0.765868
0.765833
0.76579
0.765741
0.765686
0.765627
0.765566
0.765503
0.765441
0.765382
0.765326
0.765277
0.765234
0.765201
0.765178
0.765167
0.76517
0.76519
0.765227
0.765286
0.765366
0.76547
0.765599
0.76575
0.765923
0.766113
0.766321
0.766549
0.766803
0.767063
0.767331
0.767635
0.767966
0.768333
0.768739
0.769185
0.769675
0.770206
0.770763
0.771341
0.771932
0.772531
0.773145
0.773776
0.774424
0.775088
0.775769
0.776465
0.777175
0.777898
0.778634
0.77938
0.780137
0.780902
0.781674
0.782453
0.783238
0.784028
0.784822
0.785618
0.786416
0.787216
0.788016
0.788815
0.789614
0.790411
0.791206
0.791998
0.792786
0.793571
0.794351
0.795126
0.795896
0.79666
0.797418
0.79817
0.798915
0.799653
0.800384
0.801108
0.801825
0.802533
0.803234
0.803926
0.804611
0.805287
0.805956
0.806616
0.807267
0.80791
0.808544
0.809169
0.809785
0.810392
0.81099
0.81158
0.81216
0.81273
0.813291
0.813843
0.814385
0.814917
0.81544
0.815953
0.816456
0.81695
0.817434
0.817908
0.818372
0.818826
0.81927
0.819704
0.820128
0.820542
0.820945
0.821338
0.82172
0.82209
0.82245
0.822797
0.823132
0.823456
0.823768
0.824069
0.824358
0.824635
0.8249
0.825154
0.825395
0.825625
0.825843
0.826049
0.826243
0.826425
0.826595
0.826752
0.826898
0.82703
0.82715
0.827255
0.827347
0.827424
0.827487
0.827536
0.827569
0.827588
0.827591
0.827579
0.827552
0.827508
0.827449
0.827375
0.827284
0.827177
0.827054
0.826914
0.826758
0.826584
0.826397
0.826199
0.825989
0.825764
0.825521
0.825262
0.824987
0.824695
0.824388
0.824064
0.823726
0.823371
0.823003
0.822617
0.822228
0.821765
0.821438
0.820587
0.767976
0.767877
0.767821
0.767783
0.767741
0.76769
0.767632
0.767567
0.767498
0.767425
0.767351
0.767276
0.767201
0.76713
0.767062
0.767001
0.766946
0.766901
0.766867
0.766845
0.766838
0.766846
0.766871
0.766916
0.766981
0.767067
0.767175
0.767304
0.767455
0.767629
0.767827
0.768051
0.768302
0.768571
0.768859
0.769176
0.76952
0.769892
0.770291
0.770718
0.771176
0.771662
0.772173
0.772711
0.773272
0.773852
0.774451
0.775068
0.775703
0.776355
0.777023
0.777706
0.778403
0.779114
0.779836
0.780569
0.781313
0.782066
0.782826
0.783593
0.784367
0.785146
0.785928
0.786714
0.787503
0.788293
0.789084
0.789876
0.790666
0.791456
0.792243
0.793029
0.793811
0.79459
0.795365
0.796136
0.796902
0.797662
0.798417
0.799166
0.799909
0.800645
0.801375
0.802098
0.802813
0.803522
0.804223
0.804916
0.805601
0.806279
0.806949
0.807611
0.808264
0.80891
0.809547
0.810175
0.810794
0.811405
0.812007
0.8126
0.813184
0.813759
0.814324
0.81488
0.815426
0.815963
0.816491
0.817009
0.817517
0.818016
0.818505
0.818984
0.819453
0.819912
0.820362
0.820801
0.82123
0.821649
0.822057
0.822455
0.822842
0.823217
0.823581
0.823933
0.824273
0.824602
0.824918
0.825223
0.825516
0.825797
0.826066
0.826324
0.826569
0.826802
0.827023
0.827231
0.827428
0.827612
0.827784
0.827943
0.82809
0.828224
0.828344
0.82845
0.828542
0.828619
0.828681
0.828729
0.828761
0.828779
0.82878
0.828767
0.828737
0.828692
0.82863
0.828553
0.828459
0.828349
0.828223
0.82808
0.827921
0.827745
0.827555
0.827352
0.827136
0.826905
0.826657
0.826392
0.826112
0.825815
0.825502
0.825173
0.824828
0.824468
0.824091
0.823697
0.823293
0.822827
0.822473
0.821753
0.770564
0.770421
0.770342
0.770292
0.770238
0.770173
0.770099
0.770018
0.769932
0.769842
0.76975
0.769658
0.769566
0.769477
0.769392
0.769314
0.769242
0.76918
0.769128
0.769089
0.769063
0.769053
0.76906
0.769085
0.76913
0.769196
0.769283
0.769392
0.769525
0.769683
0.769866
0.770075
0.770309
0.770564
0.770843
0.771149
0.771481
0.771841
0.772227
0.77264
0.773079
0.773544
0.774033
0.774546
0.775083
0.775641
0.77622
0.776817
0.777434
0.778067
0.778717
0.779382
0.780062
0.780755
0.78146
0.782177
0.782904
0.783641
0.784386
0.785138
0.785896
0.786661
0.78743
0.788203
0.788979
0.789757
0.790536
0.791317
0.792097
0.792877
0.793655
0.794432
0.795207
0.795978
0.796746
0.797511
0.798271
0.799027
0.799777
0.800523
0.801262
0.801996
0.802723
0.803445
0.804159
0.804867
0.805567
0.806261
0.806947
0.807626
0.808297
0.808961
0.809616
0.810264
0.810903
0.811535
0.812158
0.812772
0.813378
0.813975
0.814563
0.815143
0.815713
0.816274
0.816826
0.817368
0.817901
0.818425
0.818939
0.819444
0.819939
0.820424
0.8209
0.821365
0.821821
0.822266
0.822702
0.823127
0.823541
0.823945
0.824338
0.824719
0.825089
0.825446
0.825792
0.826126
0.826448
0.826758
0.827056
0.827342
0.827616
0.827877
0.828127
0.828363
0.828588
0.8288
0.828999
0.829186
0.829361
0.829522
0.82967
0.829805
0.829926
0.830033
0.830125
0.830202
0.830264
0.830311
0.830342
0.830358
0.830358
0.830342
0.830311
0.830263
0.830199
0.830118
0.830021
0.829908
0.829777
0.829631
0.829468
0.829288
0.829093
0.828885
0.828661
0.828422
0.828167
0.827896
0.827608
0.827305
0.826984
0.826648
0.826296
0.825927
0.825541
0.825136
0.824719
0.824247
0.823881
0.823206
0.773769
0.773596
0.773498
0.773437
0.773371
0.773291
0.7732
0.773102
0.772997
0.772888
0.772776
0.772663
0.772551
0.772441
0.772335
0.772234
0.772141
0.772057
0.771984
0.771923
0.771875
0.771843
0.771828
0.771831
0.771853
0.771896
0.771961
0.772049
0.772161
0.772298
0.77246
0.772648
0.77286
0.773097
0.773357
0.773644
0.773958
0.774298
0.774664
0.775056
0.775474
0.775917
0.776384
0.776875
0.777388
0.777923
0.778478
0.779052
0.779645
0.780256
0.780883
0.781526
0.782184
0.782855
0.783539
0.784235
0.784941
0.785657
0.786383
0.787116
0.787856
0.788602
0.789353
0.79011
0.790869
0.791632
0.792397
0.793163
0.79393
0.794697
0.795463
0.796229
0.796993
0.797754
0.798513
0.799269
0.800022
0.80077
0.801515
0.802254
0.802989
0.803718
0.804442
0.80516
0.805871
0.806577
0.807276
0.807968
0.808654
0.809333
0.810005
0.810669
0.811326
0.811976
0.812617
0.813251
0.813877
0.814495
0.815104
0.815705
0.816298
0.816882
0.817457
0.818023
0.81858
0.819127
0.819666
0.820196
0.820716
0.821226
0.821728
0.822219
0.822701
0.823173
0.823635
0.824087
0.824529
0.82496
0.825381
0.825791
0.82619
0.826577
0.826953
0.827317
0.827668
0.828008
0.828335
0.82865
0.828953
0.829244
0.829523
0.829788
0.830042
0.830282
0.83051
0.830725
0.830927
0.831117
0.831293
0.831456
0.831606
0.831742
0.831863
0.831969
0.832061
0.832137
0.832198
0.832244
0.832273
0.832287
0.832285
0.832266
0.832231
0.83218
0.832112
0.832027
0.831926
0.831807
0.831672
0.83152
0.831352
0.831167
0.830966
0.830751
0.83052
0.830273
0.83001
0.829731
0.829436
0.829125
0.828797
0.828452
0.828091
0.827713
0.827318
0.826902
0.826473
0.825993
0.825618
0.824947
0.77761
0.77742
0.77731
0.777237
0.777157
0.777061
0.776953
0.776836
0.776711
0.77658
0.776446
0.77631
0.776174
0.77604
0.77591
0.775785
0.775667
0.775558
0.77546
0.775373
0.775301
0.775243
0.775203
0.775181
0.775178
0.775196
0.775237
0.7753
0.775388
0.7755
0.775638
0.775801
0.775988
0.7762
0.776438
0.776701
0.77699
0.777306
0.777647
0.778014
0.778406
0.778823
0.779264
0.779728
0.780214
0.780721
0.781248
0.781795
0.782361
0.782944
0.783545
0.784161
0.784792
0.785437
0.786095
0.786765
0.787447
0.788138
0.788839
0.789549
0.790266
0.79099
0.791721
0.792456
0.793196
0.793939
0.794685
0.795434
0.796184
0.796934
0.797686
0.798436
0.799187
0.799935
0.800682
0.801427
0.802169
0.802908
0.803643
0.804374
0.805102
0.805824
0.806542
0.807254
0.807962
0.808663
0.809359
0.810049
0.810732
0.811409
0.81208
0.812744
0.813401
0.814051
0.814694
0.815329
0.815957
0.816577
0.817189
0.817793
0.818389
0.818976
0.819555
0.820126
0.820687
0.82124
0.821784
0.822318
0.822844
0.82336
0.823867
0.824365
0.824853
0.825331
0.825799
0.826257
0.826705
0.827143
0.82757
0.827986
0.828391
0.828784
0.829166
0.829535
0.829892
0.830238
0.83057
0.830891
0.831199
0.831494
0.831777
0.832047
0.832304
0.832548
0.832779
0.832997
0.833201
0.833393
0.833571
0.833736
0.833886
0.834022
0.834143
0.834249
0.83434
0.834415
0.834475
0.834518
0.834545
0.834556
0.83455
0.834528
0.834489
0.834433
0.834361
0.834271
0.834164
0.83404
0.833899
0.833741
0.833566
0.833374
0.833167
0.832943
0.832704
0.832449
0.832177
0.83189
0.831586
0.831266
0.830929
0.830575
0.830205
0.829816
0.829411
0.828983
0.828543
0.828054
0.827669
0.826981
0.782118
0.78192
0.7818
0.781714
0.78162
0.781507
0.78138
0.781243
0.781096
0.780943
0.780784
0.780623
0.780462
0.780301
0.780144
0.779992
0.779846
0.77971
0.779583
0.779469
0.779369
0.779284
0.779216
0.779166
0.779135
0.779126
0.779139
0.779175
0.779234
0.779318
0.779427
0.779561
0.77972
0.779904
0.780113
0.780348
0.780609
0.780895
0.781207
0.781544
0.781906
0.782292
0.782702
0.783134
0.783589
0.784064
0.78456
0.785075
0.785609
0.78616
0.786729
0.787314
0.787913
0.788528
0.789155
0.789796
0.790447
0.79111
0.791783
0.792465
0.793155
0.793852
0.794557
0.795267
0.795982
0.796702
0.797426
0.798152
0.798881
0.799612
0.800344
0.801077
0.80181
0.802542
0.803273
0.804003
0.804731
0.805457
0.80618
0.8069
0.807616
0.808329
0.809038
0.809743
0.810442
0.811137
0.811827
0.812512
0.813191
0.813864
0.814531
0.815192
0.815848
0.816496
0.817138
0.817773
0.8184
0.819021
0.819634
0.82024
0.820837
0.821427
0.822009
0.822582
0.823147
0.823703
0.824251
0.82479
0.82532
0.825841
0.826353
0.826855
0.827348
0.827832
0.828305
0.828769
0.829222
0.829666
0.830098
0.83052
0.83093
0.831329
0.831715
0.83209
0.832452
0.832803
0.83314
0.833465
0.833778
0.834077
0.834364
0.834637
0.834898
0.835145
0.835379
0.835599
0.835806
0.835999
0.836178
0.836343
0.836494
0.83663
0.836751
0.836856
0.836945
0.837019
0.837076
0.837117
0.837141
0.837148
0.837138
0.837112
0.837068
0.837007
0.836929
0.836833
0.83672
0.83659
0.836442
0.836277
0.836094
0.835895
0.835679
0.835447
0.835199
0.834934
0.834654
0.834357
0.834043
0.833713
0.833366
0.833002
0.832621
0.832222
0.831805
0.831366
0.830914
0.830414
0.830017
0.829305
0.787329
0.787127
0.786997
0.786898
0.786788
0.786657
0.786511
0.786352
0.786182
0.786004
0.78582
0.785632
0.785443
0.785254
0.785068
0.784886
0.784711
0.784544
0.784387
0.784243
0.784112
0.783996
0.783897
0.783817
0.783756
0.783716
0.783698
0.783702
0.78373
0.783783
0.783859
0.783961
0.784088
0.784239
0.784416
0.784618
0.784845
0.785098
0.785376
0.785678
0.786005
0.786356
0.78673
0.787127
0.787545
0.787984
0.788443
0.788922
0.789419
0.789935
0.790467
0.791015
0.791579
0.792158
0.79275
0.793356
0.793973
0.794602
0.795241
0.795891
0.796549
0.797215
0.797889
0.798569
0.799256
0.799948
0.800644
0.801344
0.802048
0.802754
0.803462
0.804172
0.804883
0.805595
0.806306
0.807017
0.807727
0.808436
0.809142
0.809847
0.81055
0.811249
0.811945
0.812638
0.813327
0.814012
0.814692
0.815368
0.81604
0.816706
0.817367
0.818023
0.818673
0.819317
0.819955
0.820587
0.821212
0.821831
0.822442
0.823047
0.823644
0.824234
0.824816
0.82539
0.825957
0.826515
0.827064
0.827606
0.828138
0.828662
0.829177
0.829683
0.83018
0.830667
0.831144
0.831612
0.832069
0.832517
0.832954
0.833379
0.833794
0.834197
0.834588
0.834966
0.835333
0.835687
0.836029
0.836358
0.836673
0.836976
0.837266
0.837542
0.837805
0.838054
0.83829
0.838512
0.83872
0.838914
0.839094
0.83926
0.83941
0.839545
0.839665
0.839768
0.839855
0.839926
0.83998
0.840018
0.840038
0.840041
0.840027
0.839996
0.839947
0.83988
0.839795
0.839693
0.839573
0.839435
0.83928
0.839107
0.838916
0.838708
0.838484
0.838242
0.837984
0.837709
0.837419
0.837111
0.836787
0.836446
0.836088
0.835713
0.835321
0.834911
0.834481
0.834031
0.833567
0.833054
0.832645
0.831908
0.793281
0.793076
0.792937
0.792823
0.792695
0.792545
0.792378
0.792196
0.792002
0.791798
0.791586
0.79137
0.791151
0.790932
0.790714
0.790501
0.790294
0.790094
0.789905
0.789727
0.789563
0.789414
0.789282
0.789168
0.789073
0.788999
0.788946
0.788916
0.788909
0.788926
0.788967
0.789033
0.789123
0.789238
0.789378
0.789543
0.789733
0.789948
0.790187
0.790451
0.790738
0.791049
0.791383
0.791739
0.792116
0.792514
0.792932
0.793369
0.793825
0.794299
0.79479
0.795298
0.795821
0.796359
0.796911
0.797476
0.798054
0.798644
0.799245
0.799856
0.800477
0.801107
0.801745
0.802391
0.803043
0.803702
0.804366
0.805034
0.805707
0.806384
0.807063
0.807746
0.80843
0.809115
0.809802
0.810489
0.811176
0.811863
0.812549
0.813234
0.813918
0.814599
0.815278
0.815955
0.816629
0.817299
0.817966
0.81863
0.819289
0.819944
0.820595
0.821241
0.821883
0.822519
0.82315
0.823775
0.824394
0.825008
0.825615
0.826215
0.826809
0.827396
0.827975
0.828548
0.829112
0.829669
0.830219
0.83076
0.831292
0.831817
0.832332
0.832839
0.833337
0.833826
0.834305
0.834775
0.835234
0.835684
0.836123
0.836551
0.836968
0.837374
0.837767
0.838148
0.838518
0.838874
0.839218
0.839549
0.839867
0.840172
0.840464
0.840741
0.841006
0.841256
0.841493
0.841715
0.841923
0.842118
0.842297
0.842461
0.84261
0.842744
0.842861
0.842962
0.843047
0.843114
0.843165
0.843198
0.843214
0.843212
0.843193
0.843156
0.8431
0.843027
0.842936
0.842826
0.842699
0.842553
0.842389
0.842208
0.842008
0.841791
0.841556
0.841305
0.841037
0.840751
0.840449
0.840131
0.839795
0.839443
0.839073
0.838687
0.838283
0.837861
0.83742
0.836957
0.83648
0.835955
0.835533
0.834772
0.800012
0.799807
0.799657
0.799527
0.79938
0.79921
0.79902
0.798813
0.798593
0.798361
0.798121
0.797874
0.797623
0.797371
0.797121
0.796873
0.796631
0.796396
0.796172
0.795958
0.795758
0.795573
0.795404
0.795253
0.795121
0.79501
0.794919
0.794851
0.794806
0.794784
0.794785
0.794811
0.794861
0.794936
0.795035
0.795158
0.795306
0.795478
0.795674
0.795894
0.796138
0.796404
0.796693
0.797003
0.797335
0.797687
0.798059
0.79845
0.79886
0.799287
0.799732
0.800193
0.80067
0.801162
0.801668
0.802188
0.802721
0.803267
0.803824
0.804392
0.80497
0.805557
0.806154
0.806759
0.807371
0.807991
0.808617
0.809248
0.809885
0.810526
0.811171
0.81182
0.812471
0.813126
0.813782
0.81444
0.815098
0.815758
0.816417
0.817077
0.817736
0.818394
0.819051
0.819706
0.82036
0.821011
0.821659
0.822305
0.822948
0.823587
0.824223
0.824856
0.825484
0.826107
0.826727
0.827341
0.82795
0.828554
0.829152
0.829745
0.830331
0.830911
0.831484
0.832051
0.83261
0.833163
0.833708
0.834245
0.834775
0.835296
0.83581
0.836314
0.836811
0.837298
0.837776
0.838245
0.838704
0.839153
0.839592
0.84002
0.840437
0.840843
0.841237
0.841618
0.841988
0.842345
0.84269
0.843021
0.84334
0.843645
0.843936
0.844214
0.844478
0.844728
0.844964
0.845185
0.845393
0.845585
0.845763
0.845925
0.846072
0.846203
0.846317
0.846415
0.846495
0.846559
0.846604
0.846633
0.846643
0.846636
0.84661
0.846567
0.846505
0.846424
0.846325
0.846208
0.846072
0.845918
0.845745
0.845554
0.845345
0.845118
0.844873
0.844611
0.844332
0.844035
0.843722
0.843392
0.843044
0.84268
0.842299
0.841901
0.841485
0.84105
0.840597
0.840122
0.839633
0.839096
0.83866
0.837878
0.807569
0.807363
0.807202
0.807054
0.806886
0.806693
0.806479
0.806245
0.805997
0.805735
0.805462
0.805183
0.804898
0.804611
0.804324
0.804039
0.80376
0.803487
0.803224
0.802972
0.802733
0.802508
0.802299
0.802108
0.801936
0.801783
0.801651
0.801541
0.801454
0.801389
0.801347
0.801329
0.801335
0.801365
0.801418
0.801496
0.801597
0.801723
0.801871
0.802043
0.802237
0.802454
0.802693
0.802953
0.803234
0.803535
0.803856
0.804196
0.804554
0.804929
0.805322
0.805732
0.806157
0.806597
0.807052
0.807521
0.808004
0.808499
0.809006
0.809524
0.810053
0.810593
0.811142
0.8117
0.812266
0.81284
0.813422
0.814009
0.814603
0.815203
0.815807
0.816416
0.817029
0.817645
0.818264
0.818886
0.81951
0.820136
0.820763
0.821391
0.822019
0.822648
0.823277
0.823904
0.824531
0.825157
0.825781
0.826404
0.827024
0.827642
0.828258
0.82887
0.82948
0.830086
0.830688
0.831286
0.83188
0.832469
0.833054
0.833633
0.834207
0.834776
0.835338
0.835894
0.836445
0.836988
0.837525
0.838054
0.838577
0.839092
0.839599
0.840098
0.840589
0.841071
0.841545
0.842009
0.842465
0.84291
0.843346
0.843771
0.844185
0.844588
0.844979
0.845358
0.845726
0.846081
0.846423
0.846753
0.84707
0.847373
0.847662
0.847938
0.8482
0.848447
0.848681
0.8489
0.849104
0.849294
0.849468
0.849627
0.84977
0.849896
0.850006
0.850099
0.850175
0.850233
0.850273
0.850296
0.8503
0.850286
0.850254
0.850203
0.850133
0.850045
0.849938
0.849812
0.849667
0.849504
0.849322
0.849121
0.848902
0.848665
0.848409
0.848136
0.847845
0.847537
0.847212
0.84687
0.84651
0.846134
0.84574
0.84533
0.844902
0.844455
0.84399
0.843503
0.843002
0.842452
0.842003
0.841203
0.816002
0.815794
0.81562
0.815452
0.815261
0.815042
0.8148
0.814537
0.814257
0.813961
0.813654
0.813338
0.813015
0.81269
0.812363
0.812038
0.811718
0.811404
0.811099
0.810804
0.810522
0.810254
0.810002
0.809767
0.80955
0.809353
0.809176
0.80902
0.808886
0.808774
0.808686
0.80862
0.808577
0.808558
0.808562
0.808589
0.808639
0.808713
0.808809
0.808928
0.809068
0.809231
0.809415
0.80962
0.809845
0.81009
0.810354
0.810637
0.810938
0.811256
0.811591
0.811943
0.812311
0.812694
0.813091
0.813503
0.813928
0.814367
0.814817
0.81528
0.815754
0.816238
0.816733
0.817237
0.817751
0.818273
0.818802
0.81934
0.819884
0.820434
0.820991
0.821552
0.822119
0.822691
0.823266
0.823845
0.824427
0.825012
0.8256
0.826189
0.82678
0.827372
0.827965
0.828559
0.829153
0.829746
0.830339
0.830932
0.831523
0.832113
0.832702
0.833289
0.833873
0.834455
0.835034
0.83561
0.836183
0.836752
0.837317
0.837878
0.838434
0.838986
0.839532
0.840073
0.840609
0.841138
0.841662
0.842179
0.842689
0.843193
0.843689
0.844178
0.844659
0.845132
0.845597
0.846053
0.846501
0.846939
0.847367
0.847786
0.848193
0.84859
0.848976
0.84935
0.849712
0.850062
0.850399
0.850724
0.851036
0.851335
0.85162
0.851891
0.852148
0.852391
0.85262
0.852834
0.853034
0.853219
0.853388
0.853542
0.853679
0.8538
0.853904
0.853991
0.85406
0.854112
0.854146
0.854161
0.854158
0.854137
0.854097
0.854038
0.85396
0.853863
0.853747
0.853612
0.853458
0.853285
0.853093
0.852882
0.852652
0.852404
0.852137
0.851853
0.851551
0.851231
0.850894
0.850539
0.850167
0.849779
0.849373
0.84895
0.848509
0.848051
0.847573
0.847075
0.846562
0.846
0.84554
0.844723
0.825367
0.825154
0.824965
0.824773
0.824555
0.824308
0.824034
0.823736
0.82342
0.823086
0.822739
0.822382
0.822017
0.821648
0.821277
0.820907
0.820541
0.820181
0.81983
0.819488
0.819159
0.818844
0.818544
0.818261
0.817996
0.81775
0.817524
0.817318
0.817134
0.816971
0.81683
0.816712
0.816616
0.816543
0.816493
0.816465
0.81646
0.816477
0.816516
0.816577
0.816659
0.816762
0.816886
0.81703
0.817194
0.817377
0.817579
0.817799
0.818037
0.818292
0.818563
0.818851
0.819155
0.819474
0.819808
0.820156
0.820517
0.820892
0.82128
0.821679
0.822091
0.822513
0.822947
0.82339
0.823843
0.824305
0.824776
0.825255
0.825742
0.826236
0.826737
0.827244
0.827757
0.828276
0.8288
0.829328
0.829861
0.830397
0.830937
0.83148
0.832026
0.832574
0.833124
0.833676
0.834229
0.834783
0.835338
0.835893
0.836448
0.837003
0.837558
0.838112
0.838664
0.839215
0.839765
0.840312
0.840857
0.841399
0.841938
0.842474
0.843007
0.843535
0.844059
0.844579
0.845094
0.845604
0.846109
0.846607
0.847101
0.847587
0.848068
0.848541
0.849008
0.849467
0.849919
0.850362
0.850797
0.851224
0.851641
0.852048
0.852445
0.852832
0.853208
0.853573
0.853926
0.854268
0.854597
0.854914
0.855218
0.855509
0.855786
0.85605
0.8563
0.856536
0.856758
0.856965
0.857158
0.857336
0.857498
0.857645
0.857775
0.857888
0.857985
0.858064
0.858126
0.858169
0.858195
0.858203
0.858191
0.858161
0.858113
0.858045
0.857958
0.857852
0.857726
0.857581
0.857417
0.857234
0.857031
0.85681
0.856569
0.85631
0.856032
0.855736
0.855422
0.85509
0.854741
0.854374
0.85399
0.853589
0.853171
0.852736
0.852283
0.851812
0.851323
0.850813
0.85029
0.849717
0.849244
0.848415
0.835726
0.835505
0.835296
0.835077
0.834828
0.834545
0.834233
0.833895
0.833534
0.833156
0.832762
0.832356
0.831942
0.831523
0.831102
0.830681
0.830264
0.829853
0.829449
0.829056
0.828675
0.828308
0.827955
0.827619
0.827301
0.827002
0.826721
0.826461
0.826222
0.826003
0.825806
0.825631
0.825478
0.825346
0.825237
0.825149
0.825083
0.825038
0.825015
0.825012
0.82503
0.825068
0.825126
0.825204
0.8253
0.825416
0.825549
0.8257
0.825869
0.826054
0.826256
0.826474
0.826707
0.826955
0.827218
0.827495
0.827786
0.828091
0.828408
0.828737
0.829078
0.829431
0.829796
0.83017
0.830555
0.83095
0.831354
0.831767
0.832188
0.832618
0.833055
0.833499
0.83395
0.834408
0.834872
0.835341
0.835816
0.836296
0.83678
0.837268
0.837761
0.838257
0.838756
0.839258
0.839762
0.840268
0.840777
0.841287
0.841798
0.84231
0.842823
0.843336
0.843849
0.844362
0.844874
0.845385
0.845895
0.846404
0.84691
0.847414
0.847916
0.848414
0.84891
0.849402
0.84989
0.850374
0.850854
0.851328
0.851798
0.852263
0.852721
0.853174
0.853621
0.854061
0.854494
0.854919
0.855337
0.855746
0.856147
0.856539
0.856922
0.857294
0.857656
0.858008
0.858348
0.858677
0.858995
0.8593
0.859593
0.859873
0.86014
0.860393
0.860633
0.860859
0.861071
0.861269
0.861453
0.861621
0.861774
0.861911
0.862031
0.862136
0.862223
0.862293
0.862345
0.86238
0.862396
0.862394
0.862373
0.862334
0.862275
0.862198
0.862101
0.861984
0.861848
0.861693
0.861519
0.861325
0.861112
0.860879
0.860627
0.860357
0.860067
0.85976
0.859434
0.85909
0.858728
0.858349
0.857953
0.85754
0.857109
0.856662
0.856197
0.855715
0.855215
0.854694
0.85416
0.853577
0.853093
0.852254
0.847511
0.847277
0.847041
0.846786
0.846495
0.846166
0.845804
0.845412
0.844996
0.844559
0.844105
0.843639
0.843164
0.842683
0.8422
0.841718
0.84124
0.840767
0.840303
0.839849
0.839408
0.83898
0.838567
0.83817
0.837791
0.83743
0.837089
0.836766
0.836464
0.836183
0.835922
0.835682
0.835463
0.835265
0.835088
0.834932
0.834796
0.834681
0.834587
0.834512
0.834457
0.834421
0.834404
0.834406
0.834427
0.834465
0.834521
0.834594
0.834683
0.834789
0.834911
0.835048
0.835201
0.835368
0.83555
0.835746
0.835956
0.836178
0.836414
0.836663
0.836923
0.837196
0.83748
0.837775
0.83808
0.838396
0.838722
0.839058
0.839402
0.839756
0.840118
0.840488