/*--------------------------------*- C++ -*----------------------------------*\
  =========                 |
  \\      /  F ield         | OpenFOAM: The Open Source CFD Toolbox
   \\    /   O peration     | Website:  https://openfoam.org
    \\  /    A nd           | Version:  7
     \\/     M anipulation  |
\*---------------------------------------------------------------------------*/
FoamFile
{
    version     2.0;
    format      ascii;
    class       volScalarField;
    location    "3.9";
    object      alpha.water;
}
// * * * * * * * * * * * * * * * * * * * * * * * * * * * * * * * * * * * * * //

dimensions      [0 0 0 0 0 0 0];

internalField   nonuniform List<scalar> 
6000
(
0
0
0
0
0
0
0
0
0
0
0
0
0
0
0
0
0
0
0
0
0
0
0
0
0
0
0
0
0
0
0
0
0
0
0
0
0
0
0
0
0
0
0
0
0
0
0
0
0
0
0
0
0
0
0
0
0
0
0
0
0
0
0
0
0
0
0
0
0
0
0
0
0
0
0
0
0
0
0
0
0
0
0
0
0
0
0
0
0
0
0
0
0
0
0
0
0
0
0
0
0
0
0
0
0
0
0
0
0
0
0
0
0
0
0
0
0
0
0
0
0
0
0
0
0
0
0
0
0
0
0
0
0
0
0
0
0
0
0
0
0
0
0
0
0
0
0
0
0
0
0
0
0
0
0
0
0
0
0
0
0
0
0
0
0
0
0
0
0
0
0
0
0
0
0
0
0
0
0
0
0
0
0
0
0
0
0
0
0
0
0
0
0
0
0
0
0
0
0
0
0
0
0
0
0
0
0
0
0
0
0
0
0
0
0
0
0
0
0
0
0
0
0
0
0
0
0
0
0
0
0
0
0
0
0
0
0
0
0
0
0
0
0
0
0
0
0
0
0
0
0
0
0
0
0
0
0
0
0
0
0
0
0
0
0
0
0
0
0
0
0
0
0
0
0
0
0
0
0
0
0
0
0
0
0
0
0
0
0
0
0
0
0
0
0
0
0
0
0
0
0
0
0
0
0
0
0
0
0
0
0
0
0
0
0
0
0
0
0
0
0
0
0
0
0
0
0
0
0
0
0
0
0
0
0
0
0
0
0
0
0
0
0
0
0
0
0
0
0
0
0
0
0
0
0
0
0
0
0
0
0
0
0
0
0
0
0
0
0
0
0
0
0
0
0
0
0
0
0
0
0
0
0
0
0
0
0
0
0
0
0
0
0
0
0
0
0
0
0
0
0
0
0
0
0
0
0
0
0
9.092786007851e-90
1.1434548656802e-87
7.1238262223289e-86
2.9533406571128e-84
9.1433170515544e-83
2.2582081181565e-81
4.633072512765e-80
8.1199930873385e-79
1.2413507399124e-77
1.6812698201227e-76
2.0427336769797e-75
2.248885523465e-74
2.2620059923226e-73
2.0931631683388e-72
1.7925408178256e-71
1.4280029750938e-70
1.0628972802495e-69
7.420977094637e-69
4.8767322039449e-68
3.0258072919666e-67
1.777425926971e-66
9.9098118397186e-66
5.2558146070534e-65
2.6571318501424e-64
1.2829139132421e-63
5.9257576350469e-63
2.6226603017791e-62
1.1138559099189e-61
4.5456560990317e-61
1.7848169621791e-60
6.7504211623922e-60
2.4619870868367e-59
8.6677252619252e-59
2.9485441614677e-58
9.7003403605522e-58
3.0889664887064e-57
9.5287405757351e-57
2.8495978223888e-56
8.2674018284533e-56
2.3285585992537e-55
6.3711496356751e-55
1.6944426499643e-54
4.3829538383936e-54
1.1032612480566e-53
2.7038995773174e-53
6.4553798102157e-53
1.502038153195e-52
3.4077461049924e-52
7.5417354998242e-52
1.6288304099047e-51
3.4344374824399e-51
7.0725865325819e-51
1.4229996110012e-50
2.7982710096531e-50
5.3799903210311e-50
1.0116324468107e-49
1.8610196812754e-49
3.3504118756495e-49
5.904621634017e-49
1.0189549005982e-48
1.7222865096737e-48
2.8520530534248e-48
4.6283023384012e-48
7.3621430086379e-48
1.1481748517524e-47
1.756032228829e-47
2.6343510630885e-47
3.8772563334496e-47
5.5998345492543e-47
7.938027810888e-47
1.1046411171366e-46
1.5093244839536e-46
2.0252382308227e-46
2.6691836471209e-46
3.4559213264909e-46
4.3964763257281e-46
5.4963078184316e-46
6.7535303527981e-46
8.1573649677215e-46
9.6870657834166e-46
1.1311499896379e-45
1.2989547922186e-45
1.4671432591075e-45
1.6300940192618e-45
1.7818445724118e-45
1.9164519987229e-45
2.0283797990357e-45
2.1128797304645e-45
2.1663266684339e-45
2.1864764823866e-45
2.1343992037509e-44
0
0
0
0
0
0
0
-8.4383272581456e-80
-1.0148805979355e-77
-6.0805541345763e-76
-2.4196924631736e-74
-7.1944450197096e-73
-1.7047481852153e-71
-3.3531480988353e-70
-5.6309546309866e-69
-8.2408743759215e-68
-1.0676614756242e-66
-1.2397167443063e-65
-1.3030645480316e-64
-1.250044157088e-63
-1.1019961052467e-62
-8.9795646553507e-62
-6.796956304961e-61
-4.7998469970738e-60
-3.1741041103998e-59
-1.9720558421878e-58
-1.1544390536332e-57
-6.3837376556454e-57
-3.3419202860307e-56
-1.6595035487283e-55
-7.8298485918373e-55
-3.5151731626802e-54
-1.5034103272648e-53
-6.1313455798522e-53
-2.3860151597289e-52
-8.8631116800416e-52
-3.1425909170347e-51
-1.0630687425518e-50
-3.4269216623961e-50
-1.0505073052107e-49
-3.0512992736989e-49
-8.3467891277657e-49
-2.1274796337584e-48
-4.9510058627823e-48
-1.0057557031744e-47
-1.5604644495364e-47
-6.2715763608712e-48
8.4454022922532e-47
4.9100468741371e-46
1.9493828323934e-45
6.5928114260994e-45
2.0231808195897e-44
5.7892891414283e-44
1.5671112880196e-43
4.0477286846969e-43
1.0032676694302e-42
2.3957028283097e-42
5.5274129792382e-42
1.2349521707453e-41
2.6765953384914e-41
5.6356295639109e-41
1.1541127528426e-40
2.3011301966437e-40
4.4709785462917e-40
8.4716278141469e-40
1.5665024881066e-39
2.8285376920012e-39
4.9900082681324e-39
8.6053771186307e-39
1.4513470115179e-38
2.3949349137852e-38
3.8682340645417e-38
6.1177626546088e-38
9.4773693489798e-38
1.4386133408907e-37
2.1404227223617e-37
3.122377665988e-37
4.467111081932e-37
6.2696449958994e-37
8.634722393674e-37
1.1672200658768e-36
1.5490359167029e-36
2.0187201304195e-36
2.584011743793e-36
3.2494589875457e-36
4.0152919883511e-36
4.8764188589983e-36
5.8216776166001e-36
6.8334715135743e-36
7.8878921703833e-36
8.9553938564034e-36
1.0002026915709e-35
1.0991175032222e-35
1.1885678134648e-35
1.2650169348796e-35
1.3253418817163e-35
1.3670465462547e-35
1.3884332517056e-35
1.3887162565829e-35
1.2993511571524e-34
0
0
0
0
0
0
-3.7433089480304e-78
-4.6272202995033e-76
-2.849158800958e-74
-1.1651524901396e-72
-3.5601586968573e-71
-8.6696760622515e-70
-1.7527064704591e-68
-3.0256540764479e-67
-4.5528552337039e-66
-6.0664910026702e-65
-7.2471965897155e-64
-7.8404324412297e-63
-7.7454174869452e-62
-7.03563744322e-61
-5.9113281367927e-60
-4.6174492983707e-59
-3.3680562982206e-58
-2.3030629758173e-57
-1.4814102768644e-56
-8.9912061371503e-56
-5.1632698723568e-55
-2.8123443826279e-54
-1.4561938538967e-53
-7.1822118170694e-53
-3.3805631006033e-52
-1.5210610994027e-51
-6.5524727578268e-51
-2.7063545865269e-50
-1.0731399778674e-49
-4.0902288836121e-49
-1.5001885630208e-48
-5.3003193906611e-48
-1.805649884509e-47
-5.9364468884338e-47
-1.8851169230311e-46
-5.7862653857109e-46
-1.7179491724275e-45
-4.9368798184237e-45
-1.3739751582354e-44
-3.7052603630901e-44
-9.6867256418334e-44
-2.4560282622559e-43
-6.0414476794852e-43
-1.4421975614953e-42
-3.3417816000806e-42
-7.5172512307274e-42
-1.6416660863838e-41
-3.4803537382571e-41
-7.161146373379e-41
-1.4295321027786e-40
-2.7668757954724e-40
-5.187619026782e-40
-9.4089362335188e-40
-1.6475821837388e-39
-2.7772530083176e-39
-4.486531657779e-39
-6.8969429781829e-39
-9.9682728551569e-39
-1.324108605019e-38
-1.5361769003633e-38
-1.3267673015838e-38
-8.7055047309705e-40
3.2960046528569e-38
1.0733483343238e-37
2.5342065943036e-37
5.1981930419858e-37
9.7929857029105e-37
1.7367300194125e-36
2.9378082916827e-36
4.7777739232081e-36
7.5089671513442e-36
1.144566075175e-35
1.6964333997807e-35
2.4497449691779e-35
3.4518973067975e-35
4.7520394999075e-35
6.397691842283e-35
8.4304699066039e-35
1.0881148777031e-34
1.376445182325e-34
1.7074078338523e-34
2.0778568949555e-34
2.4818623975053e-34
2.9106422514862e-34
3.3527335475273e-34
3.7944194762626e-34
4.2203998535402e-34
4.6146635088034e-34
4.9614938014492e-34
5.2465184108547e-34
5.4577046036217e-34
5.5862032790765e-34
5.6269592872215e-34
5.4126046251031e-33
0
0
0
0
0
1.2427108282725e-79
-2.1354541563815e-76
-2.7099775004889e-74
-1.6733652910851e-72
-6.8247583031173e-71
-2.075477284309e-69
-5.0258114223857e-68
-1.0099232974995e-66
-1.7326059040974e-65
-2.5908870171734e-64
-3.4308623051123e-63
-4.0735736068726e-62
-4.3806509381177e-61
-4.302295828749e-60
-3.8858605573704e-59
-3.2469448243505e-58
-2.5227900515989e-57
-1.8307762423355e-56
-1.2457503909198e-55
-7.9756611435052e-55
-4.8192211852255e-54
-2.7558628185217e-53
-1.4951565075036e-52
-7.7132946572344e-52
-3.7914463626741e-51
-1.7790657169086e-50
-7.9825874541644e-50
-3.430382916198e-49
-1.4138979741611e-48
-5.5969555068382e-48
-2.1305071527791e-47
-7.8075007864541e-47
-2.7574308342194e-46
-9.3949545096886e-46
-3.0909152844534e-45
-9.8278872110903e-45
-3.0225088656044e-44
-8.9978826228634e-44
-2.5947059932583e-43
-7.2527215845652e-43
-1.9663015239091e-42
-5.1735541937133e-42
-1.3217650483752e-41
-3.2806975989542e-41
-7.9146056777659e-41
-1.8566601949793e-40
-4.2369086697529e-40
-9.4088646991031e-40
-2.0339431509771e-39
-4.2813366809228e-39
-8.777422786535e-39
-1.7530367347403e-38
-3.4113010132101e-38
-6.4684408659554e-38
-1.1952223383368e-37
-2.1520640147044e-37
-3.7754580682871e-37
-6.4520382071624e-37
-1.0737034589027e-36
-1.7390222409116e-36
-2.7392672208724e-36
-4.1919253573001e-36
-6.2229398931612e-36
-8.942483536954e-36
-1.2401016309479e-35
-1.6518398774728e-35
-2.0978975564223e-35
-2.5087220308772e-35
-2.7582284435392e-35
-2.6415982208495e-35
-1.8507372622231e-35
5.023786828697e-37
3.6459969379046e-35
9.6829877177197e-35
1.9069296385328e-34
3.2856235302982e-34
5.219735053005e-34
7.8282358152416e-34
1.1224630092689e-33
1.5505775589171e-33
2.0739381066796e-33
2.6951318654979e-33
3.4114165783972e-33
4.2138516254188e-33
5.0868523776773e-33
6.0082843620976e-33
6.9501633427763e-33
7.8799614775969e-33
8.762446665043e-33
9.5619124208257e-33
1.0244599743288e-32
1.0781079456284e-32
1.1148359205796e-32
1.1331505012452e-32
1.1242448211012e-31
0
0
0
0
0
7.6787401571777e-78
-6.0303620549229e-75
-7.9227794067729e-73
-4.9277831097676e-71
-2.0117538207626e-69
-6.1093540513884e-68
-1.4756351567726e-66
-2.9559067673524e-65
-5.053341254788e-64
-7.5285814547876e-63
-9.9311730408035e-62
-1.1745622651262e-60
-1.2581402677914e-59
-1.2307750391188e-58
-1.1072864925474e-57
-9.2162620380846e-57
-7.13322464857e-56
-5.156878029905e-55
-3.4958667702586e-54
-2.2299306838143e-53
-1.3425603052348e-52
-7.6503440617154e-52
-4.1363115731703e-51
-2.1267142601452e-50
-1.0419787184232e-49
-4.8738871769285e-49
-2.1802406749837e-48
-9.341818009036e-48
-3.8396263185416e-47
-1.5158714250879e-46
-5.7556509983916e-46
-2.1042137607626e-45
-7.4151287844067e-45
-2.5212723880691e-44
-8.279484811345e-44
-2.6281701895596e-43
-8.0710580575289e-43
-2.3997853024953e-42
-6.913483635717e-42
-1.9310915650253e-41
-5.2332471565524e-41
-1.3767865213619e-40
-3.5183408537575e-40
-8.7381484260605e-40
-2.1102377861061e-39
-4.95770572528e-39
-1.1336043204484e-38
-2.5238014059374e-38
-5.4730715458564e-38
-1.1565025518376e-37
-2.3820277008242e-37
-4.7837097549889e-37
-9.3696043934599e-37
-1.7902917483906e-36
-3.3378482040993e-36
-6.0733608054398e-36
-1.0786360269444e-35
-1.8700363964329e-35
-3.1650493185263e-35
-5.2296080511119e-35
-8.435132103082e-35
-1.3279815715636e-34
-2.040201558117e-34
-3.0576550980436e-34
-4.4681513752733e-34
-6.3620464251367e-34
-8.8183594594672e-34
-1.1883271365482e-33
-1.5539992577718e-33
-1.966995709531e-33
-2.4006770591134e-33
-2.8086250930354e-33
-3.1198062062779e-33
-3.2346536901768e-33
-3.0229878661875e-33
-2.3247534092329e-33
-9.5446901624376e-34
1.2899753904288e-33
4.6139801744803e-33
9.2087572130168e-33
1.5230795022142e-32
2.2780026629166e-32
3.1879008926463e-32
4.2455731257978e-32
5.4332646198812e-32
6.7224108929649e-32
8.0743635881637e-32
9.4421326696681e-32
1.0773057226726e-31
1.2012196994093e-31
1.3106136813159e-31
1.4006832630049e-31
1.4675110941322e-31
1.5083467242111e-31
1.5476508158623e-30
0
0
0
0
1.209271416698e-89
2.3665095925984e-76
-1.1222910086891e-73
-1.5370759414466e-71
-9.6487645369965e-70
-3.9478673182663e-68
-1.1984192009173e-66
-2.8898211020775e-65
-5.7751153648867e-64
-9.8457083270763e-63
-1.4624019204812e-61
-1.9229405020207e-60
-2.266755326879e-59
-2.4198552120777e-58
-2.3591244909864e-57
-2.1151085762044e-56
-1.7543770023532e-55
-1.3531604726426e-54
-9.7487573148567e-54
-6.5860212376004e-53
-4.1867300783443e-52
-2.5121438526775e-51
-1.4266995848983e-50
-7.6881395950274e-50
-3.9399515763681e-49
-1.9241246950934e-48
-8.9714561383082e-48
-4.0006177533016e-47
-1.7088849367283e-46
-7.002521657263e-46
-2.7563790102096e-45
-1.0435442294061e-44
-3.8043176774247e-44
-1.3369304564231e-43
-4.5336495245522e-43
-1.4849325961508e-42
-4.7018837132001e-42
-1.4404769381706e-41
-4.273179401569e-41
-1.2283646379049e-40
-3.4240269909655e-40
-9.2611680872819e-40
-2.432102903944e-39
-6.2049673212813e-39
-1.5387852741337e-38
-3.7112801377306e-38
-8.7094392913646e-38
-1.9896600713903e-37
-4.4266964388726e-37
-9.5955878646679e-37
-2.0273207423101e-36
-4.1762827359465e-36
-8.3911412597535e-36
-1.6449501629145e-35
-3.1471073491417e-35
-5.8777823819736e-35
-1.0719235881183e-34
-1.9092224851594e-34
-3.3218022149036e-34
-5.6465723578065e-34
-9.3787594275988e-34
-1.5222826987589e-33
-2.4146671748267e-33
-3.7431214978207e-33
-5.6702795039683e-33
-8.3930578897108e-33
-1.2136643036576e-32
-1.7140161529981e-32
-2.363150435755e-32
-3.1789320380461e-32
-4.1691401747249e-32
-5.3250622253856e-32
-6.6142198324145e-32
-7.9729087533431e-32
-9.2995399025237e-32
-1.045001776775e-31
-1.1236516361398e-31
-1.1430947557684e-31
-1.0774115770001e-31
-8.9910036149754e-32
-5.8118678829938e-32
-9.9792577551358e-33
5.6304961482934e-32
1.4166240390171e-31
2.4591377151427e-31
3.6760433234942e-31
5.0393724876884e-31
6.5082788941877e-31
8.030858121311e-31
9.5471570612797e-31
1.0993132636775e-30
1.2305190605759e-30
1.3424851124585e-30
1.4303062178384e-30
1.490371947723e-30
1.5860741505301e-29
0
0
0
0
7.6425467576342e-88
4.8501397464321e-75
-1.5455038860238e-72
-2.2242712464451e-70
-1.4114617405794e-68
-5.7925900260826e-67
-1.7586600172717e-65
-4.2355699539269e-64
-8.4477664556278e-63
-1.4367164716754e-61
-2.1281738468097e-60
-2.790215912967e-59
-3.2790656090167e-58
-3.4895373265746e-57
-3.3910488138441e-56
-3.0304074073353e-55
-2.5053208885537e-54
-1.9259881926452e-53
-1.3829709504062e-52
-9.3120438978664e-52
-5.9000539935977e-51
-3.5284805488375e-50
-1.9972973458175e-49
-1.0727651487482e-48
-5.4796777921536e-48
-2.6673917477318e-47
-1.2396976280851e-46
-5.510486533055e-46
-2.3463757613249e-45
-9.5845963322231e-45
-3.7610288644308e-44
-1.4195205774223e-43
-5.1592486835439e-43
-1.8076493263294e-42
-6.11176916643e-42
-1.9959907560315e-41
-6.3019781515024e-41
-1.9252466089912e-40
-5.6954698329044e-40
-1.632785226134e-39
-4.5393011667424e-39
-1.2246058492324e-38
-3.2079092768853e-38
-8.1643643799956e-38
-2.0199445023742e-37
-4.8607396466377e-37
-1.1382244299717e-36
-2.5949029829938e-36
-5.762035904383e-36
-1.2467394619028e-35
-2.6296227302527e-35
-5.4086936866383e-35
-1.0852408598938e-34
-2.1249019525222e-34
-4.0613046945695e-34
-7.5793476024376e-34
-1.3815098809268e-33
-2.4600218158728e-33
-4.2803949486841e-33
-7.2790653681932e-33
-1.2100143655385e-32
-1.9664970314543e-32
-3.1249000618784e-32
-4.8557620284828e-32
-7.3787002304615e-32
-1.0964997481392e-31
-1.5934105584745e-31
-2.2641078973967e-31
-3.1451914696018e-31
-4.2704300646635e-31
-5.6652530933647e-31
-7.3397418578107e-31
-9.2804861743813e-31
-1.1442005198495e-30
-1.3738769804552e-30
-1.6039144560107e-30
-1.8162717452229e-30
-1.9882435706834e-30
-2.0932666492094e-30
-2.1023737986796e-30
-1.986272315703e-30
-1.717929175622e-30
-1.2754507376656e-30
-6.4496454658461e-31
1.7683846916242e-31
1.1808486852732e-30
2.3446716900683e-30
3.632959605227e-30
4.9990147758838e-30
6.3875862041064e-30
7.7386257957145e-30
8.9916430823719e-30
1.0090213914989e-29
1.0986174032239e-29
1.1643066264618e-29
1.2899495278518e-28
0
0
0
0
2.3984857214728e-86
7.4365310780173e-74
-1.6752989218972e-71
-2.5593585359252e-69
-1.6445190871168e-67
-6.774153816445e-66
-2.0578130611424e-64
-4.9514471035731e-63
-9.8583596824437e-62
-1.67287200384e-60
-2.4716664830656e-59
-3.2316075884171e-58
-3.7867265511758e-57
-4.0176144845473e-56
-3.8921300952444e-55
-3.4672298698138e-54
-2.8572968564703e-53
-2.1894906091237e-52
-1.5670789952684e-51
-1.0517320310864e-50
-6.6419344583441e-50
-3.9591596107352e-49
-2.2337492742305e-48
-1.1958420127591e-47
-6.088408167499e-47
-2.9540524891954e-46
-1.3684651840567e-45
-6.0631618158878e-45
-2.5733765609931e-44
-1.0478090278326e-43
-4.0984919312246e-43
-1.5419681092227e-42
-5.5865567046992e-42
-1.9512115529203e-41
-6.5765564041028e-41
-2.141121091005e-40
-6.7393973901374e-40
-2.0525943737366e-39
-6.0538389373802e-39
-1.7303252444395e-38
-4.7962174665272e-38
-1.2901264199167e-37
-3.3697691848219e-37
-8.551847906473e-37
-2.1098683788083e-36
-5.0631064479388e-36
-1.1823977740422e-35
-2.6884505932773e-35
-5.9542710040683e-35
-1.2850766205422e-34
-2.7038290699088e-34
-5.548116955118e-34
-1.1106707374753e-33
-2.1699346176296e-33
-4.1387488211901e-33
-7.7087415749401e-33
-1.402530224432e-32
-2.4932684553996e-32
-4.3317060434229e-32
-7.3566175545658e-32
-1.221556528611e-31
-1.9835464984232e-31
-3.1501524309552e-31
-4.8936955629162e-31
-7.4370753899822e-31
-1.1057511604003e-30
-1.6084865926153e-30
-2.2891781194005e-30
-3.1872828157329e-30
-4.3410312625511e-30
-5.7825515212226e-30
-7.5315982713549e-30
-9.5882004776595e-30
-1.1924836481435e-29
-1.4479044342993e-29
-1.7147621793488e-29
-1.9783700799319e-29
-2.2197936955045e-29
-2.4164792224765e-29
-2.5434401305462e-29
-2.5749829209074e-29
-2.486872720089e-29
-2.2587590571924e-29
-1.8766151157451e-29
-1.3349034309759e-29
-6.3817794633499e-30
1.9812827044161e-30
1.1479003059649e-29
2.1755827120641e-29
3.2383959631083e-29
4.2893339336666e-29
5.2806451042645e-29
6.1674353802215e-29
6.9110140881915e-29
7.4816391195315e-29
8.6723027653222e-28
0
0
0
0
4.9976199700204e-85
9.0986047355185e-73
-1.4833202496224e-70
-2.4378935402136e-68
-1.5891144803628e-66
-6.574833331576e-65
-1.9991256248877e-63
-4.806949399668e-62
-9.555721986451e-61
-1.6181285616338e-59
-2.3849712951844e-58
-3.1099550343819e-57
-3.6338808872752e-56
-3.8441022090538e-55
-3.7127529364037e-54
-3.2971978849298e-53
-2.7086318972011e-52
-2.0689676391521e-51
-1.4760638598606e-50
-9.8744676831991e-50
-6.2157075106736e-49
-3.6930171326488e-48
-2.0767848404529e-47
-1.1081723648611e-46
-5.6235732109612e-46
-2.7195770585842e-45
-1.2557166598359e-44
-5.5453960408824e-44
-2.3459217858468e-43
-9.5207426254865e-43
-3.7118755400481e-42
-1.3919635254276e-41
-5.0266967901888e-41
-1.7499759533804e-40
-5.8792118090112e-40
-1.9079130908724e-39
-5.9860396205472e-39
-1.8173041081513e-38
-5.3427708015515e-38
-1.5222304314631e-37
-4.2060538766479e-37
-1.1278166718127e-36
-2.9365969595136e-36
-7.4293457663449e-36
-1.827265808013e-35
-4.3714903824586e-35
-1.0177793508116e-34
-2.3071847132927e-34
-5.0946375867806e-34
-1.0963111050468e-33
-2.2999669604262e-33
-4.705925321668e-33
-9.3942812735643e-33
-1.830324038487e-32
-3.4816146419672e-32
-6.4677894981666e-32
-1.1737607124596e-31
-2.0814681459611e-31
-3.6077495907777e-31
-6.1133765470344e-31
-1.0129719179049e-30
-1.6416095077139e-30
-2.6024004751099e-30
-4.0362329063449e-30
-6.1253622256383e-30
-9.0967269245777e-30
-1.3221119072902e-29
-1.8806100256932e-29
-2.6180533392087e-29
-3.5668969392973e-29
-4.755499087621e-29
-6.2034016762524e-29
-7.9157957045506e-29
-9.8776296312442e-29
-1.2048036779982e-28
-1.4355934136583e-28
-1.6697732629009e-28
-1.8938056136666e-28
-2.091416520058e-28
-2.2444417909562e-28
-2.3340601510366e-28
-2.3423392393899e-28
-2.2539633632169e-28
-2.0579655991172e-28
-1.7492604078749e-28
-1.3297734541728e-28
-8.0899586239467e-29
-2.0384874439068e-29
4.6217653380566e-29
1.1605473933379e-28
1.8597475524747e-28
2.5276532264489e-28
3.1339770494889e-28
3.6525215948624e-28
4.0630119058765e-28
4.9591537066717e-27
0
0
0
0
7.7749486062327e-84
9.2530521768323e-72
-1.0971101848139e-69
-1.9761031344312e-67
-1.309541435468e-65
-5.4461108650027e-64
-1.658098023342e-62
-3.9851434412916e-61
-7.910967149871e-60
-1.3369749358563e-58
-1.9659748886814e-57
-2.5569664639461e-56
-2.9794840941814e-55
-3.1427435776319e-54
-3.0263008237385e-53
-2.6793626174935e-52
-2.1942321818434e-51
-1.6707576536351e-50
-1.1881662167424e-49
-7.9229382699365e-49
-4.9711209033164e-48
-2.9439389305168e-47
-1.6501245817782e-46
-8.776180048107e-46
-4.4389445266454e-45
-2.1396110362401e-44
-9.8466561381631e-44
-4.3340249023545e-43
-1.8273955338585e-42
-7.3917773257529e-42
-2.8722986412342e-41
-1.0735482080484e-40
-3.8639677890279e-40
-1.340725344848e-39
-4.4893535012853e-39
-1.4520463750114e-38
-4.5406618029105e-38
-1.373933016509e-37
-4.0259081479906e-37
-1.1432425323583e-36
-3.1484376272151e-36
-8.4143987623767e-36
-2.183713793673e-35
-5.506450323114e-35
-1.3498833364887e-34
-3.2188565776907e-34
-7.4697886743785e-34
-1.6878174466101e-33
-3.7149385998048e-33
-7.9684766030918e-33
-1.6663850785559e-32
-3.3987687303824e-32
-6.7635554173379e-32
-1.3136759694582e-31
-2.4911829065791e-31
-4.6138508970107e-31
-8.3481584678031e-31
-1.4760731788564e-30
-2.5511052043897e-30
-4.3107973012111e-30
-7.1234968855613e-30
-1.1513965032953e-29
-1.8206812631852e-29
-2.8170392295354e-29
-4.2654531731454e-29
-6.3212676221439e-29
-9.1696431918307e-29
-1.3020884451166e-28
-1.8100282417175e-28
-2.4631375796975e-28
-3.2812116500926e-28
-4.27843452713e-28
-5.4598198270667e-28
-6.8174451294238e-28
-8.3269160832031e-28
-9.9446014974621e-28
-1.1606227471034e-27
-1.3227381477773e-27
-1.4706340900028e-27
-1.5929405050142e-27
-1.6778594693188e-27
-1.7141227131125e-27
-1.6920531592348e-27
-1.604619916893e-27
-1.4483619607143e-27
-1.2240583581178e-27
-9.3704376669882e-28
-5.9710531232809e-28
-2.1794615342468e-28
1.8374502474247e-28
5.8952885870035e-28
9.8062560525731e-28
1.3393502317011e-27
1.650420477253e-27
1.9020052855576e-27
2.4640042418656e-26
0
0
0
0
9.6469152746508e-83
8.0449564688199e-71
-6.8572620933533e-69
-1.3904705470466e-66
-9.3919002738779e-65
-3.9293476585964e-63
-1.1983594156085e-61
-2.8795722169395e-60
-5.7091786579158e-59
-9.6307616620827e-58
-1.4129836205882e-56
-1.8331140414996e-55
-2.1302391038585e-54
-2.240571397472e-53
-2.1511926488179e-52
-1.8988098637755e-51
-1.5502023827178e-50
-1.1766676643269e-49
-8.3413251124368e-49
-5.5443136961767e-48
-3.4674339805207e-47
-2.0467539827375e-46
-1.1434803149136e-45
-6.061581205535e-45
-3.055785325697e-44
-1.4680325734053e-43
-6.7335328104291e-43
-2.9538948254755e-42
-1.2413151033438e-41
-5.0042723730211e-41
-1.9380331528698e-40
-7.2192130130799e-40
-2.5896186070982e-39
-8.9551647350716e-39
-2.988454082653e-38
-9.6331869928884e-38
-3.0021556633759e-37
-9.0532002617555e-37
-2.643754211996e-36
-7.4819457192651e-36
-2.0534719584389e-35
-5.469316671728e-35
-1.4145590806367e-34
-3.5547735550373e-34
-8.684626580003e-34
-2.0638188090995e-33
-4.7730298807251e-33
-1.0748025771964e-32
-2.357623523218e-32
-5.0398859386242e-32
-1.050382007712e-31
-2.1351331108634e-31
-4.2346344069333e-31
-8.1973607202115e-31
-1.549334484849e-30
-2.8600091256076e-30
-5.1578796884757e-30
-9.0903276792007e-30
-1.5660585042072e-29
-2.6379387314297e-29
-4.3456066137301e-29
-7.0025821142982e-29
-1.1040110469252e-28
-1.7032297692438e-28
-2.5717357777012e-28
-3.8009515879276e-28
-5.4994722263438e-28
-7.7902511238793e-28
-1.0804654242133e-27
-1.4672803055354e-27
-1.950997221009e-27
-2.5399337531344e-27
-3.2372053757337e-27
-4.0386404102502e-27
-4.9308487936106e-27
-5.8897450569852e-27
-6.8798455386054e-27
-7.8546323136561e-27
-8.7581945468392e-27
-9.5282237806235e-27
-1.0100265381547e-26
-1.0412936364578e-26
-1.0413639818253e-26
-1.006417040109e-26
-9.3455425604045e-27
-8.2614022539988e-27
-6.8395086016036e-27
-5.1309819534558e-27
-3.2072816042934e-27
-1.1551607352547e-27
9.2989547608055e-28
2.9510505131219e-27
4.8175214740913e-27
6.4512266013178e-27
7.7920108475202e-27
1.0815274326772e-25
0
0
0
0
9.942527168417e-82
6.1042643592365e-70
-3.6218788507921e-68
-8.6205673763615e-66
-5.9532615616588e-64
-2.5080405838799e-62
-7.6654175553229e-61
-1.8420149127812e-59
-3.6481210908612e-58
-6.1432559955786e-57
-8.9935861505737e-56
-1.1639059813224e-54
-1.3489654473673e-53
-1.4148502003724e-52
-1.3544450332883e-51
-1.1919455636054e-50
-9.7012290002722e-50
-7.3406090863888e-49
-5.187214637502e-48
-3.4367838391634e-47
-2.1424211291015e-46
-1.2605018564238e-45
-7.0190494026158e-45
-3.7085068257855e-44
-1.8633408065056e-43
-8.9218506478852e-43
-4.0785532095598e-42
-1.7831859128637e-41
-7.4682179565654e-41
-3.0005744580706e-40
-1.1581067153697e-39
-4.2992894999574e-39
-1.536943024496e-38
-5.2967129979658e-38
-1.7615144453186e-37
-5.658643187174e-37
-1.7574146455537e-36
-5.281265265347e-36
-1.5369083006667e-35
-4.3343979602269e-35
-1.1854597906235e-34
-3.1463830015065e-34
-8.1091798088182e-34
-2.0306833501276e-33
-4.9437129548363e-33
-1.1706935913523e-32
-2.6979478800266e-32
-6.0538888393864e-32
-1.3232615204261e-31
-2.8187539520052e-31
-5.853955287065e-31
-1.1857522501508e-30
-2.3434402262201e-30
-4.5204745160698e-30
-8.5139550605615e-30
-1.5661565744708e-29
-2.8146691764733e-29
-4.9434761186768e-29
-8.4872649590917e-29
-1.424765763673e-28
-2.3391739863904e-28
-3.7568217826034e-28
-5.9034501206121e-28
-9.0781839433596e-28
-1.3663826774154e-27
-2.0132144690303e-27
-2.9040696919974e-27
-4.1017431882526e-27
-5.6729465047226e-27
-7.6833396807233e-27
-1.0190635117509e-26
-1.3235962173913e-26
-1.6834021429363e-26
-2.0962927530118e-26
-2.5554979276711e-26
-3.0489832342442e-26
-3.5591610283648e-26
-4.0631314998225e-26
-4.533546175663e-26
-4.9401184302129e-26
-5.2517200791084e-26
-5.4389116305183e-26
-5.4766708098206e-26
-5.3470247871363e-26
-5.0412690416841e-26
-4.5614777868984e-26
-3.9210779733094e-26
-3.1443637850735e-26
-2.2649568775132e-26
-1.3233502479594e-26
-3.6379010999913e-27
5.6916764620428e-27
1.4340542795798e-26
2.1954818231554e-26
2.8264398644453e-26
4.2494111993018e-25
0
0
0
0
8.7530913575602e-81
4.1062028132926e-69
-1.5864988310047e-67
-4.7627717662058e-65
-3.3756638035088e-63
-1.4336030076429e-61
-4.3931839186329e-60
-1.0560207488415e-58
-2.089556276509e-57
-3.51299018912e-56
-5.1322252843351e-55
-6.6259875013671e-54
-7.6594619565142e-53
-8.0112985295656e-52
-7.6470921302794e-51
-6.7095484678373e-50
-5.444194338472e-49
-4.106608666093e-48
-2.8927365856254e-47
-1.9104382370935e-46
-1.187072255975e-45
-6.9613723900891e-45
-3.8636513644793e-44
-2.0345925579693e-43
-1.0188749696434e-42
-4.8621243157307e-42
-2.21519852028e-41
-9.6523248931651e-41
-4.0287917982492e-40
-1.6131650722989e-39
-6.2048857349083e-39
-2.2955518754552e-38
-8.1780155690105e-38
-2.8086070017366e-37
-9.30807361741e-37
-2.9796807897034e-36
-9.2216858929439e-36
-2.7615162378301e-35
-8.0080368433541e-35
-2.2504553899902e-34
-6.1331996471297e-34
-1.6220556895553e-33
-4.1656271919396e-33
-1.0394187474377e-32
-2.5214028291362e-32
-5.9493417032826e-32
-1.3661306470619e-31
-3.0543780284218e-31
-6.652130232742e-31
-1.4118756072669e-30
-2.9215335225797e-30
-5.8962543241219e-30
-1.1610639110869e-29
-2.2315478997813e-29
-4.1876873530446e-29
-7.675390344706e-29
-1.3744146344379e-28
-2.405203694625e-28
-4.1145409643319e-28
-6.8823695727649e-28
-1.1259167746493e-27
-1.8018716789017e-27
-2.8215067168619e-27
-4.3237541505594e-27
-6.4854322760206e-27
-9.5231849818936e-27
-1.3691456477162e-26
-1.9274841511898e-26
-2.6573288545184e-26
-3.5879108262595e-26
-4.744560268059e-26
-6.1448367455145e-26
-7.7941833703616e-26
-9.6815214237551e-26
-1.1775342968976e-25
-1.4020949336599e-25
-1.6339492087229e-25
-1.8629377302326e-25
-2.0770385888379e-25
-2.263055409622e-25
-2.4075483422513e-25
-2.4979360038269e-25
-2.523662470789e-25
-2.4773008755157e-25
-2.3554591326081e-25
-2.1593665172169e-25
-1.8950517837547e-25
-1.5730704456771e-25
-1.2077941020876e-25
-8.1632994420968e-26
-4.1718523681097e-26
-2.8822435250798e-27
3.3173887370753e-26
6.5012792290391e-26
9.1552120882102e-26
1.5103467495249e-24
0
0
0
0
6.720056608934e-80
2.4792847148926e-68
-5.3880821710681e-67
-2.3653871899633e-64
-1.7288098724945e-62
-7.4108100667961e-61
-2.2782885144302e-59
-5.4798656211375e-58
-1.0835248222812e-56
-1.8189050858339e-55
-2.651990830389e-54
-3.4158998560054e-53
-3.93857069859e-52
-4.1082251919193e-51
-3.9102281488003e-50
-3.4206594975136e-49
-2.7671101655695e-48
-2.0807727662841e-47
-1.4610866525842e-46
-9.6184896537047e-46
-5.9571946732343e-45
-3.4820618510253e-44
-1.9262138557882e-43
-1.0109701631099e-42
-5.0457593888447e-42
-2.3997596853118e-41
-1.0896383016362e-40
-4.7317538181667e-40
-1.9682417218595e-39
-7.853966345455e-39
-3.0105378637221e-38
-1.1099186516071e-37
-3.9403926614448e-37
-1.3485404650897e-36
-4.4535697023054e-36
-1.4206519319084e-35
-4.3811880518842e-35
-1.3073352482027e-34
-3.7776129699481e-34
-1.0578111019878e-33
-2.8725359872881e-33
-7.5697097522982e-33
-1.9369725934453e-32
-4.8156826633873e-32
-1.1639345282574e-31
-2.7363342768747e-31
-6.2603915891128e-31
-1.3945574351745e-30
-3.0260374241048e-30
-6.3989069352051e-30
-1.3192048885751e-29
-2.6525660365986e-29
-5.2039340440747e-29
-9.9647194557759e-29
-1.8630067834969e-28
-3.4018937693321e-28
-6.0690070689994e-28
-1.0581120873243e-27
-1.8033600429768e-27
-3.0052642540284e-27
-4.8982191626838e-27
-7.8099467330031e-27
-1.2184403063736e-26
-1.860337126062e-26
-2.7802751403315e-26
-4.0678267522203e-26
-5.8274339331071e-26
-8.1749574844917e-26
-1.1231311127015e-25
-1.5112818528328e-25
-1.9918300350584e-25
-2.5713409357626e-25
-3.2513338459712e-25
-4.0265646957621e-25
-4.8835472192951e-25
-5.7995691459492e-25
-6.7424556323117e-25
-7.6712859909853e-25
-8.5381802156991e-25
-9.2911454059571e-25
-9.8778238415304e-25
-1.0249835803832e-24
-1.036728641255e-24
-1.0202930784639e-24
-9.7454837783894e-25
-9.0016273253092e-25
-7.9964051152349e-25
-6.7718837811683e-25
-5.3841742664803e-25
-3.8991139712124e-25
-2.3870774286437e-25
-9.1748506957549e-26
4.4639833593037e-26
1.6518426091507e-25
2.6598025119265e-25
4.895755167208e-24
0
0
0
0
4.5703682982087e-79
1.3571944517734e-67
-1.0421072246854e-66
-1.0628856464449e-63
-8.0594894244188e-62
-3.492489361757e-60
-1.0778276223244e-58
-2.594939359343e-57
-5.128306463087e-56
-8.5971259032027e-55
-1.2510949208893e-53
-1.6078362751442e-52
-1.8491986292403e-51
-1.9236532984311e-50
-1.8257510495751e-49
-1.5924625515136e-48
-1.2843062709309e-47
-9.6276349600018e-47
-6.7390571164099e-46
-4.4221931578556e-45
-2.7300013278785e-44
-1.5904967428216e-43
-8.7692597470767e-43
-4.5871958471727e-42
-2.281789402613e-41
-1.0815518812235e-40
-4.8942235104975e-40
-2.1180551428116e-39
-8.7801020211091e-39
-3.4914745044959e-38
-1.3336923109209e-37
-4.899905005701e-37
-1.7334623000021e-36
-5.9116790756854e-36
-1.9454531823601e-35
-6.1838602394393e-35
-1.9002781754035e-34
-5.6501434867587e-34
-1.6267886998005e-33
-4.5389665829545e-33