/*--------------------------------*- C++ -*----------------------------------*\
  =========                 |
  \\      /  F ield         | OpenFOAM: The Open Source CFD Toolbox
   \\    /   O peration     | Website:  https://openfoam.org
    \\  /    A nd           | Version:  7
     \\/     M anipulation  |
\*---------------------------------------------------------------------------*/
FoamFile
{
    version     2.0;
    format      ascii;
    class       volScalarField;
    location    "0.1";
    object      T;
}
// * * * * * * * * * * * * * * * * * * * * * * * * * * * * * * * * * * * * * //

dimensions      [0 0 0 1 0 0 0];

internalField   nonuniform List<scalar> 
12225
(
1.00689
1.0041
1.00171
1.00089
1.00043
1.00012
0.999964
0.999897
0.999865
0.999844
0.999831
0.999811
0.999772
0.99967
0.999408
0.998795
0.997069
0.993514
0.995136
0.994812
0.996745
0.998334
0.999127
0.999464
0.999644
0.999763
0.999838
0.99988
0.9999
0.999903
0.999876
0.999786
0.999536
0.998947
0.99742
0.994016
0.999619
1.00005
1.00023
1.00028
1.0002
1.00008
0.999991
0.999952
0.999933
0.999918
0.999902
0.999882
0.999841
0.999746
0.999508
0.998958
0.997629
0.994877
1.00032
1.00017
0.999777
0.999749
0.999819
0.999835
0.999837
0.99985
0.999864
0.999872
0.999873
0.999865
0.999835
0.999753
0.999543
0.99906
0.997963
0.995796
1.00014
0.999947
0.999658
0.999701
0.999818
0.999857
0.999862
0.999871
0.999882
0.999887
0.999887
0.999878
0.999849
0.999773
0.999589
0.999176
0.998292
0.996635
1.00002
0.999951
0.999769
0.999773
0.999847
0.999872
0.999872
0.999877
0.999884
0.999889
0.999889
0.999881
0.999854
0.999789
0.999631
0.999291
0.998599
0.997359
0.999995
1
0.999864
0.999822
0.999858
0.999877
0.999879
0.999882
0.999888
0.999893
0.999893
0.999885
0.999863
0.999807
0.999677
0.999405
0.998875
0.997963
0.999995
1.00002
0.999917
0.999858
0.999872
0.999888
0.999889
0.999891
0.999896
0.999899
0.999899
0.999892
0.999873
0.999827
0.999722
0.99951
0.999113
0.998452
0.999995
1.00002
0.999951
0.999894
0.999893
0.999902
0.999902
0.999903
0.999905
0.999907
0.999907
0.9999
0.999884
0.999847
0.999765
0.999605
0.999314
0.998841
0.999995
1.00002
0.999976
0.999926
0.999916
0.999918
0.999916
0.999915
0.999916
0.999917
0.999915
0.999909
0.999896
0.999867
0.999805
0.999686
0.999477
0.999145
0.999996
1.00002
0.999992
0.999953
0.999938
0.999935
0.999931
0.999928
0.999927
0.999927
0.999925
0.999919
0.999909
0.999886
0.99984
0.999754
0.999607
0.999378
0.999997
1.00001
1
0.999971
0.999954
0.999949
0.999944
0.99994
0.999938
0.999936
0.999934
0.999929
0.999921
0.999903
0.999868
0.999806
0.999701
0.999539
0.999997
1.00001
1.00001
0.999984
0.999968
0.999962
0.999957
0.999952
0.999948
0.999946
0.999944
0.99994
0.999932
0.999919
0.999894
0.999848
0.999775
0.999663
0.999997
1.00001
1.00001
0.999993
0.999981
0.999974
0.999968
0.999964
0.99996
0.999957
0.999955
0.999951
0.999945
0.999935
0.999918
0.999887
0.999839
0.999767
0.999998
1.00001
1.00001
1
0.999991
0.999985
0.999981
0.999977
0.999973
0.999968
0.999965
0.999963
0.999959
0.999952
0.999939
0.99992
0.999891
0.999849
0.999998
1.00001
1.00001
1
0.999998
0.999994
0.999991
0.999988
0.999983
0.99998
0.999976
0.999974
0.999972
0.999967
0.999958
0.999946
0.99993
0.999907
0.999998
1.00001
1.00001
1.00001
1
0.999999
0.999998
0.999996
0.999992
0.999989
0.999986
0.999983
0.999981
0.999979
0.999974
0.999967
0.999958
0.999947
0.999999
1.00001
1.00001
1.00001
1
1
1
0.999998
0.999995
0.999993
0.999993
0.999992
0.999988
0.999985
0.999983
0.999981
0.999976
0.999971
1
1.00001
1.00001
1.00001
1
1
1
0.999999
0.999999
0.999996
0.999994
0.999992
0.99999
0.999988
0.999987
0.999985
0.999982
0.999979
0.999999
1.00001
1.00001
1.00001
1.00001
1
0.999998
0.999996
0.999993
0.999991
0.999989
0.999987
0.999985
0.999982
0.999981
0.999979
0.999977
0.999975
0.999997
1.00001
1.00001
1.00001
1
0.999998
0.999993
0.999988
0.999985
0.999982
0.999979
0.999976
0.999973
0.999972
0.999971
0.999969
0.999968
0.999966
0.999997
1.00001
1.00002
1.00001
0.999995
0.999988
0.999982
0.999975
0.999969
0.999965
0.999964
0.999963
0.99996
0.999959
0.999958
0.999958
0.999957
0.999955
0.999996
1.00003
1.00003
0.999996
0.999972
0.999966
0.999961
0.999956
0.999952
0.999949
0.999948
0.999947
0.999946
0.999945
0.999945
0.999944
0.999944
0.999944
0.999989
1.00005
1.00004
0.999983
0.999948
0.999938
0.999932
0.999929
0.999929
0.999931
0.999932
0.999933
0.999932
0.999933
0.999934
0.999935
0.999935
0.999936
0.99999
1.00004
0.999992
0.999937
0.999931
0.999929
0.999917
0.999909
0.999908
0.99991
0.999912
0.999915
0.999917
0.999918
0.999919
0.999921
0.999924
0.999925
1.00013
1.00009
0.999825
0.999756
0.999837
0.999896
0.999909
0.999912
0.999916
0.999918
0.99992
0.999921
0.999922
0.999922
0.999923
0.999924
0.999925
0.999926
1.0005
1.00053
0.999952
0.999665
0.999667
0.999718
0.999754
0.999789
0.99982
0.999844
0.999861
0.999875
0.999885
0.999893
0.9999
0.999905
0.999909
0.999915
1.00004
1.0008
1.00096
1.0008
1.00056
1.00034
1.00018
1.00009
1.00003
0.999996
0.99997
0.999954
0.999943
0.999935
0.99993
0.999925
0.999921
0.999921
0.994604
0.993791
0.995838
0.997661
0.998662
0.999144
0.999416
0.999594
0.99971
0.999782
0.999829
0.999863
0.999887
0.999905
0.999918
0.999928
0.999933
0.99993
1.00635
1.00419
1.00178
1.00096
1.00054
1.00023
1.00005
0.999977
0.999939
0.999915
0.9999
0.999892
0.999888
0.999886
0.999885
0.999886
0.999888
0.999899
0.806674
0.806685
0.806655
0.806615
0.806581
0.806549
0.806516
0.806483
0.806454
0.806431
0.806413
0.806399
0.80639
0.806386
0.806387
0.806394
0.806407
0.806428
0.806457
0.806495
0.806544
0.806604
0.806676
0.806762
0.806862
0.806977
0.807107
0.807249
0.807401
0.807566
0.807756
0.808001
0.808382
0.809039
0.809701
0.810163
0.810634
0.811059
0.811462
0.81185
0.812193
0.812586
0.813072
0.813519
0.813995
0.814552
0.815114
0.815696
0.816294
0.816907
0.817533
0.818171
0.818819
0.819475
0.820139
0.82081
0.821487
0.822169
0.822856
0.823545
0.824237
0.824931
0.825626
0.826321
0.827016
0.827711
0.828403
0.829094
0.829782
0.830467
0.831149
0.831827
0.832501
0.83317
0.833834
0.834493
0.835146
0.835794
0.836436
0.837071
0.8377
0.838323
0.838939
0.839549
0.840152
0.840747
0.841336
0.841918
0.842493
0.843062
0.843623
0.844178
0.844725
0.845265
0.845798
0.846322
0.846836
0.847339
0.847838
0.848332
0.848819
0.849299
0.849771
0.850236
0.850693
0.851142
0.851583
0.852017
0.852443
0.852861
0.853271
0.853674
0.854069
0.854456
0.854836
0.855207
0.855571
0.855927
0.856275
0.856614
0.856946
0.857269
0.857583
0.857887
0.858182
0.858468
0.858744
0.859012
0.859272
0.859522
0.859763
0.859996
0.860219
0.860434
0.860641
0.860838
0.861027
0.861206
0.861378
0.86154
0.861694
0.861839
0.861975
0.8621
0.862215
0.862319
0.862413
0.862497
0.862569
0.86263
0.86268
0.862719
0.862747
0.862763
0.862767
0.86276
0.862742
0.862711
0.862669
0.862614
0.862546
0.862463
0.862357
0.862213
0.862037
0.861843
0.861638
0.861424
0.8612
0.860967
0.860723
0.86047
0.860206
0.859931
0.859647
0.859347
0.859056
0.858642
0.858513
0.856972
0.807167
0.807165
0.807164
0.807155
0.807147
0.807141
0.807135
0.807125
0.807112
0.807096
0.807078
0.807061
0.807047
0.807038
0.807036
0.807041
0.807054
0.807077
0.807111
0.807156
0.807216
0.807291
0.807384
0.807498
0.807636
0.807804
0.808006
0.808246
0.808527
0.808852
0.809211
0.809582
0.809944
0.810096
0.810133
0.81035
0.810657
0.811042
0.811483
0.811954
0.812471
0.812992
0.813464
0.813987
0.814562
0.815117
0.815679
0.816254
0.816844
0.817448
0.818065
0.818694
0.819334
0.819982
0.820639
0.821303
0.821974
0.822649
0.823329
0.824011
0.824697
0.825384
0.826073
0.826762
0.827451
0.828139
0.828825
0.829509
0.830191
0.83087
0.831545
0.832217
0.832884
0.833547
0.834204
0.834857
0.835503
0.836145
0.83678
0.837408
0.838031
0.838647
0.839256
0.839859
0.840454
0.841043
0.841624
0.842199
0.842766
0.843326
0.843879
0.844424
0.844962
0.845493
0.846017
0.846534
0.847045
0.847551
0.848049
0.848537
0.849015
0.849486
0.849949
0.850404
0.850851
0.85129
0.851721
0.852145
0.85256
0.852968
0.853368
0.853759
0.854143
0.854519
0.854887
0.855247
0.855599
0.855943
0.856279
0.856606
0.856925
0.857235
0.857536
0.857827
0.858109
0.858382
0.858645
0.858899
0.859145
0.859381
0.859609
0.859827
0.860036
0.860237
0.860428
0.86061
0.860784
0.860948
0.861104
0.861251
0.861389
0.861518
0.861636
0.861745
0.861843
0.86193
0.862006
0.862071
0.862125
0.862168
0.862199
0.862219
0.862227
0.862223
0.862207
0.862179
0.862139
0.862087
0.862023
0.861945
0.861854
0.861748
0.861629
0.861502
0.861363
0.861209
0.861042
0.860863
0.860672
0.860469
0.860255
0.860029
0.859793
0.859545
0.859289
0.859019
0.858756
0.858401
0.858232
0.85718
0.808267
0.808215
0.808196
0.808184
0.808173
0.808158
0.80814
0.808118
0.808095
0.808069
0.808044
0.808021
0.808
0.807984
0.807974
0.807972
0.807978
0.807993
0.80802
0.80806
0.808114
0.808183
0.80827
0.808377
0.808504
0.808654
0.808826
0.809018
0.809228
0.809453
0.809691
0.809945
0.81022
0.810497
0.810776
0.811086
0.811419
0.811784
0.812183
0.812617
0.813091
0.813602
0.814134
0.814682
0.815237
0.815793
0.816359
0.816937
0.817527
0.818129
0.818742
0.819366
0.82
0.820643
0.821295
0.821953
0.822617
0.823286
0.82396
0.824638
0.825318
0.826
0.826684
0.827368
0.828052
0.828736
0.829418
0.830098
0.830776
0.831451
0.832123
0.832791
0.833456
0.834116
0.834771
0.835421
0.836065
0.836704
0.837337
0.837964
0.838585
0.8392
0.839808
0.840409
0.841004
0.841591
0.842172
0.842745
0.843312
0.843872
0.844425
0.84497
0.845509
0.846039
0.846563
0.847079
0.847587
0.848088
0.848582
0.849068
0.849546
0.850017
0.850479
0.850934
0.851381
0.85182
0.852251
0.852675
0.85309
0.853497
0.853897
0.854288
0.854672
0.855048
0.855415
0.855775
0.856127
0.85647
0.856805
0.857131
0.857449
0.857759
0.858058
0.858349
0.858629
0.858901
0.859163
0.859416
0.85966
0.859894
0.86012
0.860336
0.860543
0.860742
0.86093
0.86111
0.861281
0.861443
0.861595
0.861739
0.861873
0.861997
0.862112
0.862216
0.862309
0.862391
0.862462
0.862522
0.86257
0.862607
0.862632
0.862645
0.862647
0.862636
0.862613
0.862578
0.862531
0.862471
0.862399
0.862313
0.862215
0.862104
0.861983
0.861855
0.86172
0.861573
0.861412
0.861239
0.861054
0.860857
0.860648
0.860427
0.860194
0.85995
0.859697
0.859429
0.859162
0.858819
0.858616
0.857859
0.809905
0.809806
0.809759
0.809734
0.809711
0.809682
0.80965
0.809614
0.809578
0.809541
0.809505
0.809471
0.80944
0.809414
0.809394
0.809382
0.809378
0.809385
0.809402
0.809433
0.809477
0.809537
0.809614
0.809708
0.809822
0.809954
0.810106
0.810277
0.810466
0.810675
0.810904
0.811157
0.811431
0.811718
0.81202
0.812346
0.812695
0.813066
0.81346
0.813877
0.814319
0.814784
0.81527
0.815778
0.816303
0.816842
0.817395
0.817961
0.81854
0.819131
0.819734
0.820347
0.82097
0.821602
0.822242
0.822889
0.823542
0.824201
0.824865
0.825533
0.826203
0.826876
0.827551
0.828227
0.828903
0.829578
0.830253
0.830926
0.831598
0.832267
0.832933
0.833596
0.834255
0.83491
0.835561
0.836207
0.836849
0.837485
0.838115
0.83874
0.839359
0.839972
0.840579
0.841179
0.841773
0.842361
0.842941
0.843515
0.844083
0.844644
0.845198
0.845745
0.846285
0.846818
0.847343
0.847862
0.848373
0.848878
0.849374
0.849863
0.850345
0.850818
0.851284
0.851743
0.852193
0.852636
0.853071
0.853498
0.853917
0.854329
0.854732
0.855128
0.855516
0.855896
0.856267
0.856631
0.856987
0.857334
0.857673
0.858004
0.858326
0.858639
0.858943
0.859237
0.859521
0.859796
0.860062
0.860318
0.860566
0.860804
0.861032
0.861251
0.861461
0.861662
0.861853
0.862035
0.862208
0.862371
0.862526
0.86267
0.862806
0.862931
0.863046
0.86315
0.863243
0.863325
0.863395
0.863454
0.863501
0.863537
0.863561
0.863572
0.863572
0.863559
0.863534
0.863496
0.863446
0.863384
0.863309
0.863221
0.863121
0.863008
0.862885
0.862753
0.862612
0.862459
0.862293
0.862116
0.861926
0.861724
0.86151
0.861284
0.861046
0.860797
0.860536
0.860261
0.85998
0.859636
0.859409
0.858794
0.812041
0.811898
0.811827
0.811792
0.811758
0.811717
0.811671
0.811622
0.811571
0.811519
0.811469
0.81142
0.811375
0.811334
0.811299
0.811272
0.811254
0.811245
0.811248
0.811263
0.811292
0.811336
0.811396
0.811473
0.811567
0.811681
0.811813
0.811966
0.812139
0.812333
0.812549
0.812788
0.813046
0.813322
0.813616
0.813933
0.814272
0.814633
0.815016
0.81542
0.815846
0.816292
0.816757
0.817242
0.817745
0.818264
0.818799
0.819348
0.819911
0.820486
0.821073
0.821671
0.822279
0.822897
0.823522
0.824155
0.824795
0.82544
0.826091
0.826746
0.827404
0.828065
0.828728
0.829393
0.830059
0.830724
0.83139
0.832054
0.832717
0.833378
0.834037
0.834693
0.835346
0.835995
0.83664
0.837281
0.837918
0.83855
0.839177
0.839799
0.840415
0.841026
0.841631
0.84223
0.842823
0.84341
0.843991
0.844565
0.845133
0.845695
0.84625
0.846798
0.84734
0.847875
0.848403
0.848924
0.849438
0.849945
0.850445
0.850937
0.851422
0.8519
0.852369
0.852832
0.853287
0.853734
0.854173
0.854605
0.855029
0.855445
0.855854
0.856254
0.856647
0.857032
0.857409
0.857778
0.858138
0.858491
0.858835
0.85917
0.859497
0.859815
0.860123
0.860422
0.860711
0.86099
0.86126
0.861521
0.861772
0.862014
0.862246
0.862469
0.862682
0.862886
0.86308
0.863265
0.86344
0.863605
0.863761
0.863908
0.864044
0.86417
0.864285
0.86439
0.864483
0.864564
0.864634
0.864693
0.864739
0.864773
0.864795
0.864805
0.864803
0.864788
0.86476
0.86472
0.864667
0.864602
0.864524
0.864433
0.864329
0.864213
0.864086
0.863948
0.863801
0.863641
0.86347
0.863286
0.86309
0.862882
0.862662
0.862429
0.862185
0.861928
0.861659
0.861375
0.861082
0.860734
0.860499
0.859938
0.814676
0.814502
0.814414
0.81437
0.814325
0.814272
0.814212
0.814148
0.814081
0.814013
0.813945
0.813879
0.813816
0.813757
0.813704
0.813658
0.813621
0.813594
0.813578
0.813574
0.813583
0.813607
0.813647
0.813703
0.813778
0.813871
0.813983
0.814116
0.81427
0.814446
0.814643
0.814862
0.815101
0.81536
0.815638
0.815938
0.81626
0.816604
0.816969
0.817355
0.817762
0.818189
0.818635
0.8191
0.819582
0.820081
0.820595
0.821124
0.821667
0.822222
0.82279
0.823369
0.823958
0.824557
0.825164
0.82578
0.826402
0.82703
0.827665
0.828303
0.828946
0.829592
0.830241
0.830892
0.831544
0.832197
0.83285
0.833503
0.834155
0.834805
0.835454
0.836101
0.836745
0.837386
0.838024
0.838658
0.839289
0.839915
0.840537
0.841154
0.841766
0.842373
0.842975
0.843572
0.844163
0.844748
0.845327
0.845901
0.846468
0.84703
0.847585
0.848135
0.848677
0.849214
0.849743
0.850266
0.850782
0.851292
0.851794
0.85229
0.852778
0.853259
0.853733
0.854199
0.854658
0.855109
0.855554
0.85599
0.856418
0.85684
0.857253
0.857659
0.858056
0.858446
0.858828
0.859202
0.859568
0.859926
0.860275
0.860615
0.860947
0.861269
0.861582
0.861886
0.862179
0.862463
0.862737
0.863002
0.863257
0.863503
0.863739
0.863965
0.864181
0.864388
0.864584
0.864771
0.864948
0.865116
0.865273
0.865421
0.865558
0.865684
0.8658
0.865904
0.865996
0.866077
0.866146
0.866203
0.866247
0.86628
0.866299
0.866307
0.866301
0.866283
0.866252
0.866209
0.866152
0.866082
0.866
0.865904
0.865796
0.865676
0.865544
0.8654
0.865246
0.86508
0.864901
0.864711
0.864509
0.864294
0.864067
0.863827
0.863576
0.863311
0.863034
0.86274
0.862437
0.862085
0.861844
0.861293
0.817825
0.817635
0.817536
0.817482
0.817426
0.817359
0.817285
0.817204
0.81712
0.817034
0.816947
0.816861
0.816778
0.816699
0.816625
0.816558
0.816499
0.81645
0.816412
0.816386
0.816373
0.816375
0.816392
0.816426
0.816478
0.816549
0.816639
0.81675
0.816882
0.817035
0.81721
0.817406
0.817622
0.81786
0.818117
0.818397
0.818697
0.819019
0.819362
0.819726
0.82011
0.820514
0.820937
0.821378
0.821837
0.822311
0.822802
0.823307
0.823826
0.824358
0.824902
0.825458
0.826025
0.826601
0.827187
0.82778
0.828382
0.82899
0.829604
0.830223
0.830847
0.831474
0.832105
0.832739
0.833375
0.834012
0.834649
0.835288
0.835926
0.836563
0.837199
0.837834
0.838467
0.839097
0.839725
0.840351
0.840972
0.841591
0.842205
0.842816
0.843422
0.844024
0.844621
0.845213
0.8458
0.846382
0.846958
0.84753
0.848096
0.848656
0.84921
0.849759
0.850302
0.850838
0.851369
0.851893
0.85241
0.852922
0.853426
0.853924
0.854415
0.854899
0.855376
0.855846
0.856308
0.856763
0.857211
0.857652
0.858084
0.85851
0.858928
0.859339
0.859741
0.860136
0.860523
0.860901
0.861272
0.861635
0.861989
0.862334
0.86267
0.862997
0.863314
0.863622
0.86392
0.864209
0.864487
0.864756
0.865015
0.865264
0.865503
0.865732
0.865952
0.866161
0.86636
0.866549
0.866728
0.866896
0.867055
0.867203
0.867341
0.867467
0.867582
0.867686
0.867777
0.867857
0.867924
0.867979
0.868021
0.86805
0.868067
0.868071
0.868062
0.86804
0.868005
0.867957
0.867896
0.867821
0.867734
0.867633
0.867519
0.867393
0.867255
0.867105
0.866943
0.86677
0.866584
0.866387
0.866176
0.865954
0.865719
0.865472
0.865212
0.864939
0.864653
0.864349
0.864037
0.863678
0.863431
0.862868
0.821516
0.82132
0.821212
0.821148
0.82108
0.820999
0.820909
0.820811
0.820709
0.820603
0.820496
0.820388
0.820283
0.820181
0.820084
0.819993
0.81991
0.819837
0.819774
0.819724
0.819686
0.819663
0.819656
0.819665
0.819693
0.819739
0.819804
0.81989
0.819996
0.820124
0.820273
0.820443
0.820634
0.820845
0.821078
0.821332
0.821607
0.821903
0.82222
0.822557
0.822915
0.823292
0.823688
0.824101
0.824532
0.824979
0.825442
0.825919
0.826411
0.826916
0.827433
0.827962
0.828502
0.829052
0.829612
0.830181
0.830757
0.83134
0.831931
0.832526
0.833128
0.833733
0.834343
0.834955
0.835571
0.836189
0.836808
0.837428
0.838049
0.838669
0.83929
0.83991
0.840528
0.841145
0.841761
0.842374
0.842984
0.843592
0.844196
0.844798
0.845395
0.845989
0.846579
0.847165
0.847746
0.848322
0.848894
0.849461
0.850023
0.85058
0.851132
0.851678
0.852219
0.852755
0.853284
0.853808
0.854326
0.854837
0.855343
0.855841
0.856334
0.856819
0.857298
0.85777
0.858235
0.858693
0.859144
0.859588
0.860024
0.860454
0.860876
0.86129
0.861696
0.862095
0.862486
0.862869
0.863244
0.863611
0.863969
0.864319
0.864659
0.86499
0.865312
0.865624
0.865926
0.866218
0.8665
0.866772
0.867035
0.867287
0.867529
0.867761
0.867983
0.868194
0.868395
0.868586
0.868766
0.868936
0.869095
0.869244
0.869381
0.869507
0.869622
0.869724
0.869814
0.869891
0.869956
0.870008
0.870048
0.870074
0.870087
0.870088
0.870074
0.870048
0.870008
0.869955
0.869888
0.869808
0.869714
0.869608
0.869488
0.869355
0.86921
0.869053
0.868883
0.868702
0.868508
0.868302
0.868083
0.867853
0.867609
0.867353
0.867085
0.866802
0.866506
0.866193
0.865871
0.865504
0.865248
0.864666
0.825782
0.825583
0.825468
0.825393
0.825311
0.825215
0.825108
0.824992
0.82487
0.824743
0.824614
0.824484
0.824355
0.824228
0.824106
0.823989
0.823881
0.823781
0.823691
0.823614
0.82355
0.8235
0.823465
0.823447
0.823447
0.823465
0.823503
0.823561
0.823639
0.823738
0.823858
0.823998
0.82416
0.824343
0.824547
0.824771
0.825017
0.825283
0.82557
0.825877
0.826204
0.82655
0.826914
0.827297
0.827696
0.828112
0.828543
0.828989
0.829449
0.829922
0.830408
0.830907
0.831416
0.831936
0.832466
0.833005
0.833552
0.834107
0.834669
0.835238
0.835812
0.836392
0.836976
0.837564
0.838155
0.83875
0.839346
0.839945
0.840544
0.841145
0.841746
0.842347
0.842948
0.843548
0.844147
0.844745
0.845341
0.845934
0.846526
0.847115
0.847701
0.848284
0.848863
0.849439
0.850011
0.85058
0.851144
0.851704
0.85226
0.852811
0.853358
0.8539
0.854437
0.854968
0.855495
0.856016
0.856532
0.857042
0.857546
0.858044
0.858536
0.859021
0.859501
0.859973
0.860439
0.860898
0.861351
0.861796
0.862235
0.862666
0.86309
0.863507
0.863917
0.864318
0.864712
0.865098
0.865477
0.865847
0.866208
0.866561
0.866905
0.867239
0.867563
0.867878
0.868184
0.868479
0.868764
0.869039
0.869304
0.869559
0.869803
0.870037
0.870261
0.870473
0.870676
0.870867
0.871048
0.871219
0.871378
0.871527
0.871663
0.871788
0.871901
0.872002
0.87209
0.872165
0.872227
0.872276
0.872312
0.872334
0.872344
0.872339
0.872321
0.87229
0.872244
0.872185
0.872113
0.872026
0.871926
0.871813
0.871686
0.871546
0.871393
0.871228
0.87105
0.870859
0.870657
0.870442
0.870214
0.869974
0.869722
0.869456
0.869178
0.868886
0.868579
0.868256
0.867924
0.867547
0.867282
0.866679
0.830652
0.830454
0.830332
0.830243
0.830147
0.830035
0.82991
0.829775
0.829632
0.829483
0.82933
0.829176
0.829021
0.828868
0.828719
0.828575
0.828438
0.828309
0.828191
0.828085
0.827991
0.827911
0.827847
0.827799
0.827769
0.827757
0.827764
0.82779
0.827837
0.827904
0.827992
0.828101
0.82823
0.82838
0.828551
0.828743
0.828955
0.829188
0.829441
0.829713
0.830005
0.830316
0.830645
0.830992
0.831356
0.831736
0.832131
0.832542
0.832966
0.833404
0.833855
0.834318
0.834792
0.835278
0.835773
0.836279
0.836793
0.837315
0.837845
0.838382
0.838925
0.839474
0.840028
0.840587
0.84115
0.841717
0.842287
0.842859
0.843434
0.84401
0.844587
0.845166
0.845745
0.846324
0.846902
0.847481
0.848058
0.848634
0.849208
0.849781
0.850351
0.85092
0.851485
0.852048
0.852608
0.853165
0.853719
0.854268
0.854815
0.855357
0.855895
0.856429
0.856959
0.857485
0.858005
0.858521
0.859032
0.859537
0.860038
0.860532
0.861021
0.861504
0.861982
0.862452
0.862917
0.863375
0.863827
0.864273
0.864711
0.865143
0.865567
0.865985
0.866395
0.866798
0.867193
0.867581
0.867961
0.868332
0.868696
0.86905
0.869395
0.869731
0.870058
0.870375
0.870682
0.870979
0.871266
0.871543
0.871809
0.872065
0.872311
0.872546
0.87277
0.872983
0.873186
0.873378
0.873559
0.873729
0.873887
0.874035
0.87417
0.874293
0.874404
0.874502
0.874587
0.874659
0.874718
0.874763
0.874795
0.874813
0.874818
0.874808
0.874785
0.874747
0.874696
0.874631
0.874552
0.874458
0.874351
0.87423
0.874096
0.873948
0.873786
0.873612
0.873426
0.873226
0.873014
0.87279
0.872552
0.872303
0.87204
0.871764
0.871476
0.871174
0.870857
0.870523
0.870181
0.869794
0.869518
0.868895
0.836161
0.835964
0.835835
0.835733
0.835621
0.835491
0.835347
0.835191
0.835026
0.834853
0.834675
0.834494
0.834312
0.834131
0.833952
0.833779
0.833611
0.833452
0.833303
0.833165
0.833039
0.832927
0.832831
0.83275
0.832687
0.832641
0.832615
0.832607
0.832619
0.832652
0.832704
0.832777
0.832871
0.832985
0.833119
0.833274
0.833449
0.833645
0.833859
0.834094
0.834347
0.834619
0.834909
0.835216
0.83554
0.83588
0.836235
0.836606
0.83699
0.837388
0.8378
0.838223
0.838658
0.839104
0.839561
0.840028
0.840504
0.840989
0.841482
0.841982
0.84249
0.843004
0.843523
0.844048
0.844578
0.845113
0.845651
0.846193
0.846737
0.847284
0.847833
0.848384
0.848936
0.84949
0.850044
0.850598
0.851152
0.851705
0.852258
0.85281
0.853361
0.85391
0.854458
0.855004
0.855547
0.856088
0.856627
0.857162
0.857695
0.858224
0.858751
0.859274
0.859793
0.860308
0.860819
0.861326
0.861829
0.862326
0.862819
0.863308
0.86379
0.864268
0.86474
0.865206
0.865667
0.866121
0.86657
0.867012
0.867448
0.867877
0.8683
0.868716
0.869124
0.869526
0.86992
0.870307
0.870686
0.871058
0.87142
0.871775
0.87212
0.872456
0.872783
0.8731
0.873407
0.873704
0.873991
0.874268
0.874535
0.874791
0.875036
0.875271
0.875495
0.875707
0.875909
0.8761
0.87628
0.876448
0.876605
0.87675
0.876883
0.877004
0.877111
0.877206
0.877288
0.877356
0.87741
0.877451
0.877478
0.877491
0.87749
0.877475
0.877446
0.877402
0.877344
0.877272
0.877186
0.877085
0.87697
0.876841
0.876698
0.876542
0.876372
0.876189
0.875992
0.875783
0.875562
0.875327
0.875079
0.874819
0.874546
0.874261
0.873962
0.873649
0.873322
0.872977
0.872625
0.872227
0.87194
0.871299
0.842346
0.842151
0.842013
0.841896
0.841767
0.841618
0.841453
0.841274
0.841084
0.840886
0.840681
0.840471
0.84026
0.840048
0.839838
0.839633
0.839433
0.83924
0.839057
0.838885
0.838725
0.838578
0.838446
0.83833
0.83823
0.838148
0.838085
0.83804
0.838014
0.838009
0.838023
0.838057
0.838111
0.838185
0.83828
0.838394
0.838528
0.838682
0.838855
0.839047
0.839257
0.839486
0.839732
0.839995
0.840275
0.840571
0.840882
0.841208
0.841548
0.841902
0.842269
0.842648
0.843039
0.843442
0.843855
0.844278
0.844711
0.845154
0.845605
0.846064
0.84653
0.847004
0.847484
0.84797
0.848461
0.848958
0.84946
0.849965
0.850474
0.850987
0.851503
0.852021
0.852541
0.853063
0.853587
0.854112
0.854637
0.855164
0.85569
0.856216
0.856742
0.857268
0.857792
0.858316
0.858838
0.859358
0.859877
0.860394
0.860908
0.86142
0.86193
0.862437
0.862941
0.863442
0.863939
0.864433
0.864923
0.86541
0.865892
0.866369
0.866842
0.86731
0.867774
0.868232
0.868684
0.869132
0.869574
0.870009
0.870439
0.870863
0.871281
0.871692
0.872096
0.872494
0.872884
0.873268
0.873644
0.874012
0.874372
0.874723
0.875066
0.8754
0.875724
0.876039
0.876345
0.87664
0.876926
0.877201
0.877466
0.87772
0.877963
0.878196
0.878417
0.878628
0.878827
0.879016
0.879193
0.879359
0.879513
0.879654
0.879784
0.8799
0.880004
0.880095
0.880172
0.880235
0.880285
0.88032
0.880342
0.880349
0.880342
0.880321
0.880284
0.880234
0.880169
0.880089
0.879995
0.879886
0.879763
0.879626
0.879474
0.879309
0.87913
0.878937
0.878731
0.878512
0.87828
0.878035
0.877777
0.877506
0.877223
0.876926
0.876617
0.876293
0.875955
0.875601
0.875238
0.874829
0.874532
0.873874
0.849249
0.849056
0.848908
0.848774
0.848624
0.848454
0.848265
0.848062
0.847845
0.847618
0.847383
0.847142
0.846898
0.846653
0.846409
0.846168
0.845932
0.845704
0.845484
0.845274
0.845076
0.844892
0.844721
0.844566
0.844427
0.844306
0.844202
0.844117
0.84405
0.844003
0.843975
0.843966
0.843978
0.844008
0.844059
0.844129
0.844218
0.844326
0.844453
0.844598
0.844762
0.844943
0.845142
0.845357
0.845588
0.845835
0.846098
0.846374
0.846665
0.84697
0.847287
0.847617
0.847959
0.848313
0.848677
0.849052
0.849437
0.849832
0.850235
0.850647
0.851067
0.851495
0.85193
0.852371
0.852819
0.853272
0.853731
0.854195
0.854663
0.855135
0.855611
0.856091
0.856574
0.857059
0.857547
0.858036
0.858528
0.859021
0.859515
0.86001
0.860505
0.861001
0.861497
0.861993
0.862488
0.862982
0.863476
0.863969
0.86446
0.864949
0.865437
0.865923
0.866407
0.866889
0.867368
0.867844
0.868317
0.868787
0.869253
0.869716
0.870174
0.870629
0.871079
0.871525
0.871966
0.872402
0.872833
0.873259
0.873679
0.874093
0.874502
0.874905
0.875301
0.875692
0.876075
0.876452
0.876821
0.877183
0.877537
0.877883
0.878221
0.878549
0.878869
0.87918
0.879481
0.879772
0.880053
0.880324
0.880585
0.880835
0.881075
0.881303
0.881521
0.881728
0.881923
0.882108
0.882281
0.882442
0.882591
0.882728
0.882853
0.882965
0.883063
0.883148
0.88322
0.883277
0.883321
0.88335
0.883366
0.883366
0.883352
0.883324
0.883281
0.883222
0.883149
0.883062
0.882959
0.882842
0.882711
0.882564
0.882404
0.882229
0.88204
0.881838
0.881622
0.881392
0.88115
0.880894
0.880626
0.880344
0.88005
0.879743
0.879422
0.879088
0.87874
0.878375
0.878002
0.877583
0.877275
0.876604
0.856916
0.856722
0.856562
0.856409
0.856237
0.856042
0.855826
0.855593
0.855346
0.855086
0.854817
0.854541
0.85426
0.853978
0.853696
0.853416
0.853141
0.852872
0.852612
0.852361
0.852122
0.851896
0.851683
0.851486
0.851305
0.85114
0.850992
0.850863
0.850751
0.850659
0.850585
0.85053
0.850495
0.850478
0.850481
0.850502
0.850542
0.850601
0.850678
0.850773
0.850885
0.851014
0.85116
0.851323
0.851501
0.851695
0.851903
0.852126
0.852363
0.852613
0.852876
0.853151
0.853439
0.853738
0.854048
0.854369
0.854701
0.855042
0.855392
0.855751
0.856119
0.856495
0.856878
0.857269
0.857666
0.85807
0.85848
0.858896
0.859317
0.859743
0.860173
0.860608
0.861046
0.861489
0.861934
0.862382
0.862833
0.863287
0.863742
0.8642
0.864658
0.865118
0.86558
0.866041
0.866504
0.866966
0.867429
0.867891
0.868353
0.868814
0.869275
0.869734
0.870192
0.870649
0.871104
0.871557
0.872008
0.872456
0.872901
0.873344
0.873783
0.874219
0.874651
0.87508
0.875504
0.875925
0.876341
0.876752
0.877158
0.877559
0.877955
0.878346
0.87873
0.879109
0.879482
0.879848
0.880207
0.88056
0.880905
0.881242
0.881571
0.881891
0.882203
0.882506
0.8828
0.883084
0.883358
0.883623
0.883877
0.884121
0.884354
0.884577
0.884788
0.884989
0.885178
0.885357
0.885524
0.885679
0.885822
0.885953
0.886071
0.886177
0.886269
0.886347
0.886412
0.886463
0.886499
0.886521
0.886529
0.886523
0.886501
0.886465
0.886413
0.886347
0.886266
0.88617
0.886059
0.885933
0.885792
0.885636
0.885466
0.885282
0.885083
0.884871
0.884645
0.884405
0.884152
0.883885
0.883606
0.883314
0.883009
0.88269
0.882359
0.882014
0.881656
0.881281
0.880898
0.880469
0.880151
0.879469
0.8654
0.865201
0.865026
0.86485
0.864651
0.864427
0.864179
0.863911
0.863627
0.863329
0.86302
0.862703
0.86238
0.862055
0.861729
0.861405
0.861086
0.860773
0.860467
0.860172
0.859887
0.859615
0.859357
0.859113
0.858885
0.858673
0.858478
0.8583
0.85814
0.857998
0.857875
0.85777
0.857684
0.857616
0.857566
0.857535
0.857522
0.857526
0.857548
0.857588
0.857644
0.857717
0.857806
0.85791
0.85803
0.858165
0.858315
0.858478
0.858655
0.858846
0.859049
0.859265
0.859492
0.859731
0.859982
0.860243
0.860514
0.860796
0.861087
0.861387
0.861696
0.862014
0.86234
0.862673
0.863014
0.863362
0.863717
0.864078
0.864445
0.864818
0.865196
0.865579
0.865967
0.866359
0.866755
0.867156
0.86756
0.867967
0.868377
0.86879
0.869205
0.869623
0.870042
0.870464
0.870887
0.871311
0.871736
0.872161
0.872588
0.873014
0.873441
0.873868
0.874294
0.87472
0.875145
0.875569
0.875991
0.876412
0.876831
0.877248
0.877663
0.878075
0.878484
0.87889
0.879293
0.879693
0.880088
0.88048
0.880868
0.881251
0.881629
0.882003
0.882372
0.882735
0.883093
0.883444
0.88379
0.884128
0.88446
0.884785
0.885102
0.88541
0.885711
0.886003
0.886286
0.88656
0.886825
0.88708
0.887325
0.88756
0.887784
0.887998
0.888201
0.888394
0.888575
0.888746
0.888905
0.889052
0.889187
0.88931
0.88942
0.889517
0.889601
0.889672
0.889728
0.889771
0.8898
0.889814
0.889813
0.889798
0.889768
0.889723
0.889663
0.889588
0.889498
0.889392
0.889272
0.889137
0.888987
0.888822
0.888642
0.888448
0.888239
0.888016
0.887779
0.887529
0.887265
0.886988
0.886698
0.886395
0.886079
0.88575
0.885409
0.885053
0.884685
0.8843
0.883907
0.88347
0.88314
0.882451
0.875054
0.874846
0.874649
0.874443
0.87421
0.873947
0.873657
0.873344
0.873013
0.872665
0.872306
0.871937
0.871562
0.871184
0.870806
0.870429
0.870057
0.869691
0.869333
0.868985
0.868648
0.868323
0.868012
0.867715
0.867433
0.867168
0.866919
0.866687
0.866472
0.866274
0.866095
0.865933
0.865789
0.865663
0.865554
0.865463
0.865389
0.865333
0.865293
0.865269
0.865262
0.86527
0.865294
0.865334
0.865388
0.865456
0.865539
0.865635
0.865745
0.865867
0.866003
0.86615
0.866309
0.866479
0.866661
0.866854
0.867057
0.86727
0.867493
0.867725
0.867967
0.868217
0.868476
0.868744
0.869019
0.869302
0.869592
0.869889
0.870193
0.870503
0.870819
0.871141