/*--------------------------------*- C++ -*----------------------------------*\
  =========                 |
  \\      /  F ield         | OpenFOAM: The Open Source CFD Toolbox
   \\    /   O peration     | Website:  https://openfoam.org
    \\  /    A nd           | Version:  7
     \\/     M anipulation  |
\*---------------------------------------------------------------------------*/
FoamFile
{
    version     2.0;
    format      ascii;
    class       volScalarField;
    location    "2.1";
    object      alpha.water;
}
// * * * * * * * * * * * * * * * * * * * * * * * * * * * * * * * * * * * * * //

dimensions      [0 0 0 0 0 0 0];

internalField   nonuniform List<scalar> 
6000
(
0
0
0
0
0
0
0
0
0
0
0
0
0
0
0
0
0
0
0
0
0
0
0
0
0
0
0
0
0
0
0
0
0
0
0
0
0
0
0
0
0
0
0
0
0
0
0
0
0
0
0
0
0
0
0
0
0
0
0
0
0
0
0
0
0
0
0
0
0
0
0
0
0
0
0
0
0
0
0
0
0
0
0
0
0
0
0
0
0
0
0
0
0
0
0
0
0
0
0
0
0
0
0
0
0
0
0
0
0
0
0
0
0
0
0
0
0
0
0
0
0
0
0
0
0
0
0
0
0
0
0
0
0
0
0
0
0
0
0
0
0
0
0
0
0
0
0
0
0
0
0
0
0
0
0
0
0
0
0
0
0
0
0
0
0
0
0
0
0
0
0
0
0
0
0
0
0
0
0
0
0
0
0
0
0
0
0
0
0
0
0
0
0
0
0
0
0
0
0
0
0
0
0
0
0
0
0
0
0
0
0
0
0
0
0
0
0
0
0
0
0
0
0
0
0
0
0
0
0
0
0
0
0
0
0
0
0
0
0
0
0
0
0
0
0
0
0
0
0
0
0
0
0
0
0
0
0
0
0
0
0
0
0
0
0
0
0
0
0
0
0
0
0
0
0
0
0
0
0
0
0
0
0
0
0
0
0
0
0
0
0
0
0
0
0
0
0
0
0
0
0
0
0
0
0
0
0
0
0
0
0
0
0
0
0
0
0
0
0
0
0
0
0
0
0
0
0
0
0
0
0
0
0
0
0
0
0
0
0
0
0
0
0
0
0
0
0
0
0
0
0
0
0
0
0
0
0
0
0
0
0
0
0
0
0
0
0
0
0
0
0
0
0
0
0
0
0
0
0
0
0
0
0
0
0
0
0
0
0
0
0
0
0
0
0
0
0
0
0
0
0
0
0
0
0
0
0
0
0
2.2582911487529e-60
1.5252004411705e-58
5.115055246537e-57
1.1371639775003e-55
1.8848935463537e-54
2.4844075901732e-53
2.7121082106713e-52
2.5221924744088e-51
2.0396741531326e-50
1.4570666402603e-49
9.3091212354246e-49
5.3726973598131e-48
2.8243382224409e-47
1.361733762453e-46
6.0572362098441e-46
2.4984331759281e-45
9.598144587332e-45
3.4475786906434e-44
1.1618091027313e-43
3.6844487883661e-43
1.1025874273583e-42
3.1212185122039e-42
8.3766878996458e-42
2.1356816364552e-41
5.1822520945501e-41
1.198818739664e-40
2.6479938285029e-40
5.5928304506613e-40
1.1310282082052e-39
2.1926852879756e-39
4.0797747201947e-39
7.2931528239619e-39
1.2538472536487e-38
2.0750436765732e-38
3.3085744656478e-38
5.0867416674684e-38
7.5466874027041e-38
1.0811956265115e-37
1.4968493333741e-37
2.0038087871925e-37
2.5953825286642e-37
3.2543318409312e-37
3.9525075824177e-37
4.6521795665644e-37
5.3091372834221e-37
5.8772652777871e-37
6.313938251212e-37
6.5853578845647e-37
6.6708898801552e-37
6.5656291557328e-37
6.2807571743553e-37
5.8416851963327e-37
5.2843920472596e-37
4.6506760414599e-37
3.9831677113818e-37
3.3208814983818e-37
2.6959122409634e-37
2.1315494197269e-37
1.6418249105239e-37
1.2322520038406e-37
9.0138030927718e-38
6.4275052416937e-38
4.4687732095995e-38
3.0298920373554e-38
2.003715917234e-38
1.292673190236e-38
8.1368166807088e-39
4.9980365923569e-39
2.9963035313171e-39
1.7533663343522e-39
1.0016489760576e-39
5.5868505471814e-40
3.0428203287611e-40
1.618414345947e-40
8.4071819159512e-41
4.2657841617399e-41
2.1143288627171e-41
1.0237787272774e-41
4.8431913984317e-42
2.2386099108769e-42
1.0110515647013e-42
4.4621096794794e-43
1.9244242805618e-43
8.1109944219214e-44
3.3410010800914e-44
1.3449999859386e-44
5.2920360684089e-45
2.0351068791073e-45
7.6493088236909e-46
2.810167039089e-46
1.5449652871745e-46
0
0
0
0
0
0
0
-2.0870548685195e-50
-1.3079646530789e-48
-4.0670518429042e-47
-8.3637182375996e-46
-1.2792623027163e-44
-1.5517169601923e-43
-1.5540870396936e-42
-1.321074899762e-41
-9.7232892403302e-41
-6.2891184601478e-40
-3.6155498870686e-39
-1.8634737003517e-38
-8.6665786104501e-38
-3.6535152653163e-37
-1.3996315897565e-36
-4.8734057334163e-36
-1.5374452986635e-35
-4.3562702713479e-35
-1.0864853152779e-34
-2.2695915540542e-34
-3.3687747432473e-34
-1.0463482051035e-35
2.4369564822401e-33
1.2335634599193e-32
4.4408530377321e-32
1.3536505573892e-31
3.6924730933687e-31
9.2447701276231e-31
2.1544867211638e-30
4.7150930191416e-30
9.7489728174548e-30
1.9127913031331e-29
3.5734775549716e-29
6.3739554283029e-29
1.0879177236997e-28
1.7802399530689e-28
2.7975156709996e-28
4.2277536580362e-28
6.1525579085455e-28
8.6322460256356e-28
1.1689192458302e-27
1.5292312547449e-27
1.9346197199056e-27
2.3688220785531e-27
2.8095855630723e-27
3.2304577366736e-27
3.6034535384825e-27
3.9022146025757e-27
4.1051487469881e-27
4.198019652178e-27
4.1755552635581e-27
4.0418332160854e-27
3.80943432672e-27
3.4975746885416e-27
3.1295851655249e-27
2.7301764417574e-27
2.3229053303859e-27
1.9281625434258e-27
1.5618654573476e-27
1.234896333388e-27
9.532057952108e-28
7.1842080079196e-28
5.2876117127283e-28
3.8007391988273e-28
2.6682863090336e-28
1.8296615209398e-28
1.22544232622e-28
8.0168143175834e-29
5.1226565251438e-29
3.1971766247416e-29
1.9489760724085e-29
1.1603882552487e-29
6.747521321261e-30
3.831915077731e-30
2.1252231594116e-30
1.1510569930444e-30
6.0880711692163e-31
3.1444213753381e-31
1.5858714797863e-31
7.8099837336546e-32
3.7555738258204e-32
1.7633398244438e-32
8.0838637445138e-33
3.6183866547804e-33
1.5812975808535e-33
6.7468986190221e-34
2.8104475602334e-34
1.1429193385566e-34
4.5374477680893e-35
1.7585298552627e-35
6.6529571909111e-36
2.456914156648e-36
1.3572372142963e-36
0
0
0
0
0
0
-9.2583410495415e-49
-6.0516109190545e-47
-1.9638752514112e-45
-4.2187391796498e-44
-6.7485395782457e-43
-8.5743553368862e-42
-9.0128294536494e-41
-8.0611083690738e-40
-6.2621721872529e-39
-4.2919546217212e-38
-2.6274799058256e-37
-1.4510982855739e-36
-7.2892020788396e-36
-3.3531840243505e-35
-1.4208270734029e-34
-5.5728768284731e-34
-2.031999016167e-33
-6.9131979697253e-33
-2.2016286219054e-32
-6.5817041134744e-32
-1.8515049655112e-31
-4.9116331513564e-31
-1.230931175753e-30
-2.9188823437376e-30
-6.557210407424e-30
-1.3968745462232e-29
-2.8236167400074e-29
-5.4171731889363e-29
-9.8618962260306e-29
-1.7021448611754e-28
-2.7804729476978e-28
-4.2851928315734e-28
-6.1974994946806e-28
-8.3320761559609e-28
-1.0229759316074e-27
-1.1041513044487e-27
-9.4311495798502e-28
-3.5345038709384e-28
8.9841046128246e-28
3.0745783667967e-27
6.4331102274565e-27
1.1183741095375e-26
1.7438031271309e-26
2.5163156523491e-26
3.4149971514471e-26
4.400485692667e-26
5.4171096947367e-26
6.3979800039287e-26
7.2724013070813e-26
7.9744321165897e-26
8.4511307656e-26
8.6690564034661e-26
8.6179405882215e-26
8.311015249996e-26
7.7821316531159e-26
7.080377948847e-26
6.2632783953196e-26
5.3897752364277e-26
4.5140635896487e-26
3.6810360941715e-26
2.9236939753174e-26
2.2624926425821e-26
1.7062886597426e-26
1.2543810991268e-26
8.99097375083e-27
6.2843656822641e-27
4.2841150372675e-27
2.8488182723315e-27
1.8480936267894e-27
1.169725881949e-27
7.2241198451497e-28
4.353730331163e-28
2.5606175074732e-28
1.4698117072735e-28
8.2344855468911e-29
4.5028771600284e-29
2.4034829877348e-29
1.2522914056136e-29
6.3693773632464e-30
3.1624780618707e-30
1.5328749617566e-30
7.2534119826815e-31
3.3507356558677e-31
1.5111377916726e-31
6.653282717658e-32
2.8598013992598e-32
1.200056609584e-32
4.9161994686159e-33
1.9661335454475e-33
7.6761595426228e-34
2.9255797054201e-34
1.0884389327207e-34
3.9528039979331e-35
2.1288210614523e-35
0
0
0
0
0
3.0736016807161e-50
-2.7922645727925e-47
-1.8682457799112e-45
-6.0629677101514e-44
-1.295475410324e-42
-2.0574085912082e-41
-2.5934140727095e-40
-2.7039970866641e-39
-2.3990699475728e-38
-1.8491478111779e-37
-1.2578832278563e-36
-7.6460467257579e-36
-4.1947770186536e-35
-2.0942826326047e-34
-9.5810177871388e-34
-4.039979259582e-33
-1.5780402920044e-32
-5.7347832895585e-32
-1.9463665319076e-31
-6.1899869358136e-31
-1.8500867695872e-30
-5.21034716208e-30
-1.3858701008372e-29
-3.488653623633e-29
-8.3266709335278e-29
-1.8874315675546e-28
-4.0689347200109e-28
-8.3529985895324e-28
-1.6346279401093e-27
-3.0520476927777e-27
-5.4406883328682e-27
-9.2641188970276e-27
-1.5070471401593e-26
-2.3418981187555e-26
-3.4745147245108e-26
-4.9161724356695e-26
-6.6211859802362e-26
-8.4615282859369e-26
-1.0207230393339e-25
-1.1520449036082e-25
-1.1970605555573e-25
-1.1075047104335e-25
-8.3643777406337e-26
-3.4649395324034e-26
3.8153839690528e-26
1.3415808980428e-25
2.4983438560033e-25
3.7879190494211e-25
5.1233236425574e-25
6.4043766082319e-25
7.5303112126481e-25
8.4128886756545e-25
8.9876501315797e-25
9.2213552132836e-25
9.1144872130771e-25
8.6987319701558e-25
8.0303007878109e-25
7.1806481844717e-25
6.2264110127751e-25
5.2402611498751e-25
4.2839149682507e-25
3.4039333127646e-25
2.6303380685862e-25
1.9775933490941e-25
1.4472198637679e-25
1.0312375053327e-25
7.1572333450726e-26
4.8396459135087e-26
3.1891133546357e-26
2.0483709044031e-26
1.2826663205998e-26
7.8317813181401e-27
4.6635506004984e-27
2.7085863920409e-27
1.5345919442969e-27
8.4823484179243e-28
4.5746292160248e-28
2.4074163473415e-28
1.2363361524359e-28
6.1964427680561e-29
3.031066190397e-29
1.447166253026e-29
6.7442067397517e-30
3.0679536571794e-30
1.3623382077918e-30
5.905393654451e-31
2.4988890002528e-31
1.0322445902957e-31
4.1625177971949e-32
1.6385689220432e-32
6.2965511033986e-33
2.3618997293425e-33
8.648269025739e-34
3.0909447589928e-34
1.6249977981345e-34
0
0
0
0
0
1.0139886018359e-48
-4.1506318143662e-46
-2.8689134401892e-44
-9.3528510078377e-43
-1.9948342696102e-41
-3.1549314287991e-40
-3.9561015117287e-39
-4.1011145014235e-38
-3.6168731321292e-37
-2.7708913309656e-36
-1.8734867258769e-35
-1.1319899166653e-34
-6.1739423775107e-34
-3.0648200590852e-33
-1.3943689468979e-32
-5.8483448956826e-32
-2.2728024628765e-31
-8.2198348734121e-31
-2.7771374000177e-30
-8.7948000812933e-30
-2.6184423244481e-29
-7.3485205980981e-29
-1.9486102969659e-28
-4.8925921664448e-28
-1.1653801483267e-27
-2.6378560171122e-27
-5.6826640255442e-27
-1.1667042109689e-26
-2.285597122173e-26
-4.2768576453702e-26
-7.6511402339315e-26
-1.3095611294324e-25
-2.145718861891e-25
-3.36693969627e-25
-5.0604244897388e-25
-7.2842738373522e-25
-1.0037953226197e-24
-1.3230589242576e-24
-1.665434840505e-24
-1.997192308532e-24
-2.2726807400586e-24
-2.4381928822377e-24
-2.438643163556e-24
-2.2263079157415e-24
-1.7701757870537e-24
-1.0640131802424e-24
-1.312383464534e-25
9.7481504791568e-25
2.1757599205514e-24
3.3775531241674e-24
4.4828205936424e-24
5.4038464611842e-24
6.0738391538609e-24
6.4545171328371e-24
6.5389063258507e-24
6.3492727291007e-24
5.9310617353483e-24
5.3443653906634e-24
4.6546788231299e-24
3.924545804402e-24
3.2072368873372e-24
2.5430098641158e-24
1.9579298241617e-24
1.4647928484526e-24
1.0654605376872e-24
7.5386955811648e-25
5.1908555304982e-25
3.4795875172498e-25
2.271459331055e-25
1.4444288930816e-25
8.9497903360679e-26
5.4044864504474e-26
3.1813377079684e-26
1.8258226365912e-26
1.021815392493e-26
5.5771922551259e-27
2.969243438334e-27
1.5421076096965e-27
7.8139090254922e-28
3.8632049266546e-28
1.8637554545731e-28
8.7745194515376e-29
4.0316055198124e-29
1.8079058663321e-29
7.9128953611793e-30
3.3804275153902e-30
1.4095982070257e-30
5.7373809298968e-31
2.2794501148887e-31
8.8398385502817e-32
3.34620529533e-32
1.2363671319426e-32
4.4588002920443e-33
1.5694585992353e-33
8.0637941956681e-34
0
0
0
0
3.0109988318787e-60
1.6669783867811e-47
-4.0441654204521e-45
-2.9119140012698e-43
-9.558180535803e-42
-2.0376806822381e-40
-3.2124725903251e-39
-4.0104118116614e-38
-4.1362887854075e-37
-3.6280683209889e-36
-2.7638394452252e-35
-1.8580440075637e-34
-1.1162153443672e-33
-6.0530431458788e-33
-2.9877181205651e-32
-1.3516423140176e-31
-5.6376550058321e-31
-2.178939854923e-30
-7.8379961554993e-30
-2.6341562528683e-29
-8.2988828299957e-29
-2.4583135266678e-28
-6.8651548267307e-28
-1.8117261183836e-27
-4.5278428578801e-27
-1.0736944160556e-26
-2.4199773938958e-26
-5.1922886693554e-26
-1.0620138598956e-25
-2.0733296601582e-25
-3.8677256808777e-25
-6.9010549180425e-25
-1.1787248567762e-24
-1.9286379454537e-24
-3.0246145848317e-24
-4.5481933434867e-24
-6.5590901948241e-24
-9.0713403256001e-24
-1.2027782554714e-23
-1.5278675551557e-23
-1.8571500104981e-23
-2.1558559025886e-23
-2.3826392234945e-23
-2.4946470034836e-23
-2.4541042082003e-23
-2.2352904000963e-23
-1.8304842552248e-23
-1.2534863571186e-23
-5.3973251916394e-24
2.5729866695503e-24
1.0728711870247e-23
1.8397451040626e-23
2.4972496951443e-23
2.9989993610578e-23
3.317935403594e-23
3.4480113097501e-23
3.4025690154721e-23
3.210091873172e-23
2.9084262934757e-23
2.5386773080914e-23
2.1398265685258e-23
1.7447805842568e-23
1.3781462670898e-23
1.0556560971434e-23
7.8489889016318e-24
5.6688287412879e-24
3.9795479174595e-24
2.7168556776046e-24
1.8046412869558e-24
1.1667540261445e-24
7.3448454751867e-25
4.5033285709078e-25
2.6899832394956e-25
1.5657943872093e-25
8.8834576528257e-26
4.9133139290636e-26
2.6496373321876e-26
1.3934270598476e-26
7.1470578604999e-27
3.5757612322296e-27
1.7452386444957e-27
8.310508751621e-28
3.8612066472389e-28
1.7505411988292e-28
7.7446531359084e-29
3.3437507303079e-29
1.4089177933925e-29
5.7938937892786e-30
2.3253998031879e-30
9.1090268747464e-31
3.4825278133336e-31
1.2994587872653e-31
4.7322629512451e-32
1.6819106781814e-32
5.8337807355134e-33
2.932040518443e-33
0
0
0
0
1.0264069731919e-58
1.8206406250265e-46
-2.8953674646595e-44
-2.1946367032896e-42
-7.2688208283678e-41
-1.5504323710187e-39
-2.4380529272488e-38
-3.0314754979717e-37
-3.1117557167874e-36
-2.7152572686115e-35
-2.0572091918182e-34
-1.3752655003736e-33
-8.214972451051e-33
-4.4293458093543e-32
-2.173723238691e-31
-9.7773945696621e-31
-4.0546987094239e-30
-1.5581466552512e-29
-5.5728394278468e-29
-1.8622041627814e-28
-5.8334539005849e-28
-1.7181859302197e-27
-4.771082881206e-27
-1.2519907493564e-26
-3.111373814796e-26
-7.3368123737567e-26
-1.6444559940674e-25
-3.5089642440576e-25
-7.1382738400843e-25
-1.3861796569739e-24
-2.5724974735179e-24
-4.5671117862077e-24
-7.7636841827907e-24
-1.2646420680031e-23
-1.9752336275952e-23
-2.9596276480569e-23
-4.2557098694804e-23
-5.8734407397121e-23
-7.7798652993268e-23
-9.886953275795e-23
-1.2046368617389e-22
-1.4054833676752e-22
-1.567208252512e-22
-1.6650674882675e-22
-1.677376368117e-22
-1.5894157897001e-22
-1.3966603650413e-22
-1.1065734610911e-22
-7.3846911210297e-23
-3.2134312242753e-23
1.0997715777526e-23
5.1964284703464e-23
8.7563415202107e-23
1.1537570686924e-22
1.340122076301e-22
1.4318044825629e-22
1.4357805652129e-22
1.3665591030572e-22
1.2431156072047e-22
1.0857639251001e-22
9.134891175841e-23
7.4206935714177e-23
5.8309590094275e-23
4.4381289990085e-23
3.2757594161588e-23
2.3467875863556e-23
1.6331072570309e-23
1.1046165270649e-23
7.2660682205281e-24
4.6502932344758e-24
2.8968681171851e-24
1.7571006734009e-24
1.0380474110831e-24
5.9745798255944e-25
3.3509688580133e-25
1.831882049993e-25
9.7626897349535e-26
5.0729181332761e-26
2.570548968469e-26
1.270367661168e-26
6.1237524603085e-27
2.8796084377296e-27
1.3210343990727e-27
5.9127789344661e-28
2.5822181161188e-28
1.1003735782015e-28
4.5756306011226e-29
1.8566863853277e-29
7.3521081865581e-30
2.8410293755671e-30
1.0713483468384e-30
3.9425155109732e-31
1.4157820492142e-31
4.9612170984084e-32
1.6964203339785e-32
8.3462712710547e-33
0
0
0
0
1.7374982460191e-57
1.4859669386668e-45
-1.6162598811774e-43
-1.3084723043181e-41
-4.3837119073181e-40
-9.3646170114069e-39
-1.4696165023506e-37
-1.820651018508e-36
-1.8604136665365e-35
-1.6151961884246e-34
-1.2172155240591e-33
-8.092154469072e-33
-4.8063560338771e-32
-2.5765792320622e-31
-1.2571156658703e-30
-5.6213509710625e-30
-2.3174249386927e-29
-8.8525698903728e-29
-3.1472852245456e-28
-1.0453685640094e-27
-3.2548697961402e-27
-9.5285317331274e-27
-2.6296774898735e-26
-6.8580102471217e-26
-1.6937268536998e-25
-3.968966753839e-25
-8.8401413679207e-25
-1.8744581740145e-24
-3.7892176176423e-24
-7.3121292031336e-24
-1.348549441874e-23
-2.379438767848e-23
-4.0204255374796e-23
-6.5104936394196e-23
-1.0111201825776e-22
-1.5069051106356e-22
-2.156005216083e-22
-2.9621812035375e-22
-3.9084658480035e-22
-4.9518535474366e-22
-6.0214436375604e-22
-7.0216180149018e-22
-7.8409793499807e-22
-8.3664846766424e-22
-8.5007805308067e-22
-8.1795883996186e-22
-7.3854939889348e-22
-6.1548958936936e-22
-4.5761493518816e-22
-2.7788081149965e-22
-9.1583732174867e-23
8.5778788148297e-23
2.4059784603422e-22
3.6280966173085e-22
4.4685290922471e-22
4.9182824855681e-22
5.0093300490382e-22
4.8037685500436e-22
4.3805196107828e-22
3.8222788690765e-22
3.2048176571329e-22
2.5898323845277e-22
2.021595393152e-22
1.5269080843766e-22
1.1174100086458e-22
7.9316746626932e-23
5.4658441720732e-23
3.659421736436e-23
2.3817865328265e-23
1.5078570321014e-23
9.2893047974688e-24
5.571130355667e-24
3.2537843940891e-24
1.8511782372866e-24
1.0262036207769e-24
5.5442392214349e-25
2.9198335510515e-25
1.4991858588616e-25
7.5058160886467e-26
3.6647187688669e-26
1.7451441257384e-26
8.1060763147329e-27
3.6729374324492e-27
1.623562402263e-27
7.0016615584307e-28
2.945976241129e-28
1.2093951693771e-28
4.8442740509826e-29
1.893290214633e-29
7.2199837924823e-30
2.6864849164713e-30
9.7534092758141e-31
3.4549611148716e-31
1.1940746093152e-31
4.0262833175647e-32
1.9401386040214e-32
0
0
0
0
1.9489290851974e-56
9.6660249576376e-45
-7.269238703695e-43
-6.4196139145719e-41
-2.1821454178526e-39
-4.6739176634026e-38
-7.3243529015943e-37
-9.0438272035801e-36
-9.2015375488922e-35
-7.9496122024404e-34
-5.9593340176516e-33
-3.940019586322e-32
-2.3269185620316e-31
-1.2401858622748e-30
-6.0152772293426e-30
-2.6737724298987e-29
-1.0956270441066e-28
-4.1597900055046e-28
-1.4697891935644e-27
-4.8515074457396e-27
-1.5010658801982e-26
-4.3663713136702e-26
-1.1972775078688e-25
-3.1021100283713e-25
-7.6109519724757e-25
-1.7716628815825e-24
-3.9196301791379e-24
-8.2550958247582e-24
-1.6574480618476e-23
-3.1766437290218e-23
-5.8186774674552e-23
-1.0197014164972e-22
-1.7113211062406e-22
-2.7527571563563e-22
-4.2471803976665e-22
-6.2892102141968e-22
-8.9425900389004e-22
-1.2213703453841e-21
-1.6025752131438e-21
-2.020022080375e-21
-2.4452686102144e-21
-2.8408475622101e-21
-3.1640064697547e-21
-3.3723023150931e-21
-3.4302040622265e-21
-3.315462808411e-21
-3.0238891799172e-21
-2.5713997108668e-21
-1.9927282784019e-21
-1.3369175918765e-21
-6.6041990174465e-22
-1.9152927270278e-23
5.3895876712596e-22
9.7961194885352e-22
1.2850630066307e-21
1.4541549177739e-21
1.4998259557691e-21
1.4449350567502e-21
1.317425833687e-21
1.1457821168516e-21
9.5546858121791e-22
7.6670224713965e-22
5.9356589535445e-22
4.4422602336065e-22
3.2188824693317e-22
2.2610601487414e-22
1.5412269494442e-22
1.0203179446574e-22
6.5648900074166e-23
4.1077498235426e-23
2.5008528187253e-23
1.4820763658003e-23
8.5529224088749e-24
4.8079458790074e-24
2.6334486524804e-24
1.4057620426137e-24
7.3148675447721e-25
3.710918950741e-25
1.8356838706949e-25
8.8553716947811e-26
4.1663005386331e-26
1.9118959068688e-26
8.5580776994525e-27
3.7368820011764e-27
1.5917746877267e-27
6.6146410233557e-28
2.6815926850342e-28
1.0605881902455e-28
4.0923258503084e-29
1.5404995812089e-29
5.6573881629819e-30
2.0268657107911e-30
7.0839689828233e-31
2.4152132383236e-31
8.0323431457281e-32
3.7923312105633e-32
0
0
0
0
1.6289227749072e-55
5.2191237938461e-44
-2.6730412505575e-42
-2.6612180554592e-40
-9.2138781974917e-39
-1.9814271220801e-37
-3.1026192059066e-36
-3.8197611150683e-35
-3.8705284350815e-34
-3.3280322866486e-33
-2.4819015994031e-32
-1.6319441629013e-31
-9.5834025694096e-31
-5.0779813537632e-30
-2.4483523719783e-29
-1.0817165006715e-28
-4.4053904921063e-28
-1.6622276242278e-27
-5.8363017258468e-27
-1.9142104829554e-26
-5.8845032686724e-26
-1.7005697445734e-25
-4.6323242837356e-25
-1.1922257200158e-24
-2.9053923579233e-24
-6.7170683787874e-24
-1.4758645327816e-23
-3.0867261204933e-23
-6.1541044641447e-23
-1.171169683477e-22
-2.1300162882234e-22
-3.7061584945733e-22
-6.1753903572371e-22
-9.8622885972892e-22
-1.510736375079e-21
-2.2211161389013e-21
-3.1357719784071e-21
-4.2527142732687e-21
-5.5414567399561e-21
-6.9377904202967e-21
-8.3436743319423e-21
-9.6338091600725e-21
-1.0669139573705e-20
-1.1315823636771e-20
-1.146656467074e-20
-1.1060132212317e-20
-1.0094802457654e-20
-8.6324587927024e-21
-6.7920106002375e-21
-4.7331271071617e-21
-2.6334165284362e-21
-6.6354024641793e-22
1.0349992359123e-21
2.3655295731695e-21
3.2831640322178e-21
3.7928788759773e-21
3.9403499491137e-21
3.7983606473884e-21
3.4519564651223e-21
2.9851284500782e-21
2.4709012024481e-21
1.9656054014654e-21
1.507130105666e-21
1.1162741985886e-21
8.0001702148448e-22
5.5556026901834e-22
3.7424404365461e-22
2.4478076174239e-22
1.5557558339276e-22
9.6147655456058e-23
5.7811890418452e-23
3.3836703558406e-23
1.9285481104319e-23
1.070768395938e-23
5.7930816750742e-24
3.0547631807438e-24
1.5703088707849e-24
7.8704899220545e-25
3.8466538692875e-25
1.8334656598216e-25
8.5232364819633e-26
3.8645944656881e-26
1.7091875849446e-26
7.3735252074137e-27
3.1029078698599e-27
1.2737249258394e-27
5.1003142729387e-28
1.9921923022804e-28
7.5905694630805e-29
2.8211054046973e-29
1.0227193972807e-29
3.6163751908506e-30
1.2472540541799e-30
4.1954867756853e-31
1.376366220175e-31
6.3686547629294e-32
0
0
0
0
1.0821248908602e-54
2.4055530727689e-43
-7.9968081960249e-42
-9.4941291961256e-40
-3.3653255936964e-38
-7.2782990956378e-37
-1.1396914229306e-35
-1.3996271009625e-34
-1.4128257539514e-33
-1.209230953367e-32
-8.9720991987081e-32
-5.8675516676676e-31
-3.4261778258132e-30
-1.8048562454117e-29
-8.6502096897043e-29
-3.798555681192e-28
-1.537448383462e-27
-5.7647669997527e-27
-2.0112770042149e-26
-6.5544635592792e-26
-2.0019023910756e-25
-5.7476030663784e-25
-1.5553382838002e-24
-3.9764230819174e-24
-9.6254581875783e-24
-2.2103061427136e-23
-4.8233339818643e-23
-1.0018375224083e-22
-1.9834902360895e-22
-3.7481382991945e-22
-6.7681555016041e-22
-1.1691229112676e-21
-1.9337598685617e-21
-3.0652588467452e-21
-4.6598907031267e-21
-6.7983021527782e-21
-9.5227187858953e-21
-1.2812067934993e-20
-1.6560444333633e-20
-2.0565485781123e-20
-2.4532709287714e-20
-2.8099331257549e-20
-3.0876854003247e-20
-3.2506732460029e-20
-3.2719180028529e-20
-3.1383054748065e-20
-2.8535664489413e-20
-2.4385211779454e-20
-1.9284492732818e-20
-1.3680772822283e-20
-8.0517943229526e-21
-2.8403741891992e-21
1.6004468166294e-21
5.0428787961457e-21
7.3964229452364e-21
8.6975124625409e-21
9.0819840247106e-21
8.748063293848e-21
7.9179652649894e-21
6.8048437846966e-21
5.5893257490676e-21
4.4070453391487e-21
3.3461743599827e-21
2.4523811698551e-21
1.738067308806e-21
1.192972070899e-21
7.9398618152981e-22
5.1293682497329e-22
3.2193292001146e-22
1.9644656803698e-22
1.166220339064e-22
6.7392520703764e-23
3.7926097919774e-23
2.0793460609621e-23
1.1109999608142e-23
5.7864139670711e-24
2.9383191567978e-24
1.4549490897682e-24
7.0259334997496e-25
3.3090353315331e-25
1.5200646738245e-25
6.8108147503453e-26
2.9765860667951e-26
1.2688811606971e-26
5.2759833476932e-27
2.1397339181818e-27
8.4641183897331e-28
3.2655716620986e-28
1.2287982228224e-28
4.5095432408428e-29
1.6139877046615e-29
5.6333497645873e-30
1.9174011517848e-30
6.3638136278055e-31
2.0594711131192e-31
9.3409394840089e-32
0
0
0
0
5.9522416271958e-54
9.6598673953575e-43
-1.8647328434548e-41
-2.95215607716e-39
-1.0787711392726e-37
-2.3513711165461e-36
-3.6856028568499e-35
-4.5173467172866e-34
-4.5440345988299e-33
-3.8721553231555e-32
-2.8587709338875e-31
-1.8595854393927e-30
-1.079752587314e-29
-5.6548990113504e-29
-2.6940823931441e-28
-1.1758560353775e-27
-4.7298632584727e-27
-1.7624316374986e-26
-6.1102979386945e-26
-1.9786596917309e-25
-6.0049361536179e-25
-1.7130697189528e-24
-4.6060500078952e-24
-1.1700497505489e-23
-2.8140466756507e-23
-6.4201677877148e-23
-1.3918903225817e-22
-2.8720386472429e-22
-5.6483321081314e-22
-1.0601170413668e-21
-1.9010591226833e-21
-3.2606140625806e-21
-5.3539047620413e-21
-8.4230284076599e-21
-1.2705897379258e-20
-1.8388611296551e-20
-2.5545755073801e-20
-3.4078794480307e-20
-4.3667594020956e-20
-5.3751833900075e-20
-6.3556027778015e-20
-7.2163584393846e-20
-7.8633479825845e-20
-8.2140895128467e-20
-8.2114578714884e-20
-7.8341825206036e-20
-7.1017804845295e-20
-6.0727958247128e-20
-4.8366804798927e-20
-3.500975301215e-20
-2.1763126499231e-20
-9.6200692974782e-21
6.5353760612432e-22
8.5870241586741e-21
1.4020902915333e-20
1.7075242184877e-20
1.8082913199519e-20
1.7504725550969e-20
1.5843915103706e-20
1.357425746626e-20
1.1090527897791e-20
8.6838117781269e-21
6.5388724599081e-21
4.7474360037818e-21
3.3301385011829e-21
2.2606267472589e-21
1.4871562095611e-21
9.4919166460854e-22
5.8838016247583e-22
3.5452430396496e-22
2.0779829645831e-22
1.185555132688e-22
6.587437436552e-23
3.5662847635205e-23
1.8817939488385e-23
9.680595439224e-24
4.8561612961117e-24
2.3757795837033e-24
1.1336537086063e-24
5.2763982631625e-25
2.3954419704969e-25
1.0607733246185e-25
4.5818318704536e-26
1.9302847109287e-26
7.9314466658668e-27
3.1784387265251e-27
1.2421857386971e-27
4.7342489195118e-28
1.7594946685127e-28
6.3764265219978e-29
2.2531961405815e-29
7.7630368304542e-30
2.6076703449719e-30
8.5396018894029e-31
2.7262117185392e-31
1.2121373135564e-31
0
0
0
0
2.7880722799232e-53
3.4325450589606e-42
-2.817543909438e-41
-8.0654568523366e-39
-3.0679499978833e-37
-6.7580154643554e-36
-1.0616094242348e-34
-1.2994975345796e-33
-1.3031279943027e-32
-1.1058518768652e-31
-8.1252192216298e-31
-5.2576402562938e-30
-3.0358719660823e-29
-1.5807830254341e-28
-7.4864764791672e-28
-3.2478185908708e-27
-1.298452669212e-26
-4.8085396224236e-26
-1.6568479030665e-25
-5.3323307723155e-25
-1.6084015522738e-24
-4.5605871562104e-24
-1.218864082488e-23
-3.0777347399458e-23
-7.358204862268e-23
-1.6688011191268e-22
-3.5964313781921e-22
-7.3763376785334e-22
-1.4418230034982e-21
-2.6892144672089e-21
-4.7914498272174e-21
-8.1634224125574e-21
-1.3311623664495e-20
-2.0791683467892e-20
-3.1128186649599e-20
-4.4698243432414e-20
-6.1592682588082e-20
-8.14821259189e-20
-1.0352471776086e-19
-1.2635268459788e-19
-1.4816296386821e-19
-1.6691389916923e-19
-1.8060147390313e-19
-1.8756407715744e-19
-1.8675325478573e-19
-1.779137031414e-19
-1.6163677447766e-19
-1.3928048837087e-19
-1.1277636346323e-19
-8.4362526136144e-20
-5.6291052354063e-20
-3.0556488969976e-20
-8.6845389005287e-21
8.3927803493388e-21
2.0364921121679e-20
2.747982357906e-20
3.0411683311557e-20
3.0091264407568e-20
2.7533391125993e-20
2.3691229010432e-20
1.935610083028e-20
1.5108517106021e-20
1.1314629501069e-20
8.1550372983183e-21
5.6705655896463e-21
3.8114324632251e-21
2.4803775950442e-21
1.565010199245e-21
9.5852979877477e-22
5.7046912598222e-22
3.3020436134428e-22
1.8603094346943e-22
1.0207319376234e-22
5.4573614014036e-23
2.8442657450971e-23
1.4454464054293e-23
7.1641922108142e-24
3.463552411656e-24
1.6334065399093e-24
7.5143632538605e-25
3.3721508311661e-25
1.4761117974067e-25
6.3023505492949e-26
2.6243801461313e-26
1.0657620738367e-26
4.2205763797934e-27
1.6297877748965e-27
6.1363411275873e-28
2.2525787513203e-28
8.0615148335251e-29
2.8125119388619e-29
9.5650683580017e-30
3.1708237788911e-30
1.024517765009e-30
3.2262743330883e-31
1.4062352362669e-31
0
0
0
0
1.1352740823663e-52
1.0925718713399e-41
8.7765574008923e-42
-1.9428156381339e-38
-7.8025383849089e-37
-1.7432399935301e-35
-2.7487305800994e-34
-3.3630692455e-33
-3.3636758495619e-32
-2.8435364116913e-31
-2.0796907946344e-30
-1.3388614369431e-29
-7.688787823295e-29
-3.9808134897624e-28
-1.8742713134668e-27
-8.082777321251e-27
-3.2121182311159e-26
-1.1824406766415e-25
-4.0501646120517e-25
-1.2958949511715e-24
-3.8865148659028e-24
-1.0958643672317e-23
-2.9128586844067e-23
-7.3160384901518e-23
-1.7399571858445e-22
-3.9257058484829e-22
-8.4165729971505e-22
-1.7172567779937e-21
-3.3388265082608e-21
-6.1933866835859e-21
-1.0972447893229e-20
-1.8584024631547e-20
-3.0117398786455e-20
-4.6739436730403e-20
-6.951150805754e-20
-9.913641075657e-20
-1.3567184004129e-19
-1.7827266292283e-19
-2.2503769091177e-19
-2.7302874105572e-19
-3.184982225938e-19
-3.5731300303143e-19
-3.855108141132e-19
-3.9988694356098e-19
-3.984956080411e-19
-3.8096641561367e-19
-3.4857666662979e-19
-3.0407258040645e-19
-2.5128186471269e-19
-1.945943433234e-19
-1.3840157347735e-19
-8.6582542963151e-20
-4.2106244582598e-20
-6.7982543955821e-21
1.8709677310956e-20
3.4858259751958e-20
4.290709770601e-20
4.4608876723784e-20
4.1877975724708e-20
3.6511321418664e-20
2.9998181844303e-20
2.3429559259556e-20
1.7494936742039e-20
1.2539921771805e-20
8.6543598589721e-21
5.7647666811951e-21
3.7136303247229e-21
2.317476120703e-21
1.4029975836785e-21
8.2501507942547e-22
4.7172696433972e-22
2.6250136204232e-22
1.4226692493763e-22
7.5138428652966e-23
3.8690058517409e-23
1.9429146159622e-23
9.5173137116517e-24
4.5480967042734e-24
2.1203863184256e-24
9.6440766347145e-25
4.278971045807e-25
1.8518782848364e-25
7.8169109905263e-26
3.2178116801398e-26
1.2916432021958e-26
5.0551863014617e-27
1.9288744189628e-27
7.1747375856953e-28
2.6014158238058e-28
9.1935733064635e-29
3.1666549653822e-29
1.0629944685935e-29
3.4773402689475e-30
1.1084612228486e-30
3.4428684571972e-31
1.4710401009996e-31
0
0
0
0
4.0822484927686e-52
3.1458376134721e-41
2.5920103197439e-40
-4.1165570108981e-38
-1.7842562948271e-36
-4.0631320337863e-35
-6.4436872927505e-34
-7.8883068962186e-33
-7.8740359695675e-32
-6.633596581539e-31
-4.8306725895916e-30
-3.0946324095216e-29
-1.7677693904431e-28
-9.1016748922681e-28
-4.2608423041585e-27
-1.826863489226e-26
-7.2180775886025e-26
-2.6419577722178e-25
-8.9989910911087e-25
-2.8638152046347e-24
-8.5444420215905e-24
-2.3973378748276e-23
-6.3421964299651e-23
-1.5857394578421e-22
-3.7549037611931e-22
-8.4358017166346e-22
-1.8009769370551e-21
-3.6589796614653e-21
-7.0832525645744e-21
-1.3080474341215e-20
-2.3066721541125e-20
-3.8881213797613e-20
-6.2702161998991e-20
-9.6827905269281e-20
-1.4331165162512e-19
-2.0347991550144e-19
-2.7741089222965e-19
-3.6348114875448e-19
-4.5809384873821e-19
-5.5568063686155e-19
-6.4903493311008e-19
-7.2999452510218e-19
-7.9043752881156e-19
-8.2347494195472e-19
-8.2462597145146e-19
-7.9269720936632e-19
-7.3011249542735e-19
-6.4257587392115e-19
-5.3814626719214e-19
-4.2596801236733e-19
-3.1496391082901e-19
-2.1274840767039e-19
-1.2490731767072e-19
-5.468016295796e-20
-3.0072455621138e-21
3.1134488920295e-20
5.0201992807965e-20
5.746951907619e-20
5.6432228192191e-20
5.0320731700519e-20