/*--------------------------------*- C++ -*----------------------------------*\
  =========                 |
  \\      /  F ield         | OpenFOAM: The Open Source CFD Toolbox
   \\    /   O peration     | Website:  https://openfoam.org
    \\  /    A nd           | Version:  7
     \\/     M anipulation  |
\*---------------------------------------------------------------------------*/
FoamFile
{
    version     2.0;
    format      ascii;
    class       volScalarField;
    location    "2";
    object      alpha.water;
}
// * * * * * * * * * * * * * * * * * * * * * * * * * * * * * * * * * * * * * //

dimensions      [0 0 0 0 0 0 0];

internalField   nonuniform List<scalar> 
6000
(
0
0
0
0
0
0
0
0
0
0
0
0
0
0
0
0
0
0
0
0
0
0
0
0
0
0
0
0
0
0
0
0
0
0
0
0
0
0
0
0
0
0
0
0
0
0
0
0
0
0
0
0
0
0
0
0
0
0
0
0
0
0
0
0
0
0
0
0
0
0
0
0
0
0
0
0
0
0
0
0
0
0
0
0
0
0
0
0
0
0
0
0
0
0
0
0
0
0
0
0
0
0
0
0
0
0
0
0
0
0
0
0
0
0
0
0
0
0
0
0
0
0
0
0
0
0
0
0
0
0
0
0
0
0
0
0
0
0
0
0
0
0
0
0
0
0
0
0
0
0
0
0
0
0
0
0
0
0
0
0
0
0
0
0
0
0
0
0
0
0
0
0
0
0
0
0
0
0
0
0
0
0
0
0
0
0
0
0
0
0
0
0
0
0
0
0
0
0
0
0
0
0
0
0
0
0
0
0
0
0
0
0
0
0
0
0
0
0
0
0
0
0
0
0
0
0
0
0
0
0
0
0
0
0
0
0
0
0
0
0
0
0
0
0
0
0
0
0
0
0
0
0
0
0
0
0
0
0
0
0
0
0
0
0
0
0
0
0
0
0
0
0
0
0
0
0
0
0
0
0
0
0
0
0
0
0
0
0
0
0
0
0
0
0
0
0
0
0
0
0
0
0
0
0
0
0
0
0
0
0
0
0
0
0
0
0
0
0
0
0
0
0
0
0
0
0
0
0
0
0
0
0
0
0
0
0
0
0
0
0
0
0
0
0
0
0
0
0
0
0
0
0
0
0
0
0
0
0
0
0
0
0
0
0
0
0
0
0
0
0
0
0
0
0
0
0
0
0
0
0
0
0
0
0
0
0
0
0
0
0
0
0
0
0
0
0
0
0
0
0
0
0
0
0
0
0
0
0
0
9.6964016992607e-59
6.2405796407897e-57
1.9930289792232e-55
4.2182538890435e-54
6.6542329635947e-53
8.3445845444747e-52
8.6644620006955e-51
7.6615599993299e-50
5.8893051217513e-49
3.9976391779353e-48
2.4260782025411e-47
1.329582934171e-46
6.6346265419145e-46
3.0354026446622e-45
1.2807672485325e-44
5.0093262215768e-44
1.8241355620375e-43
6.2084450229966e-43
1.9817128918735e-42
5.9504837740886e-42
1.6853920176132e-41
4.5139056594105e-41
1.1457011195466e-40
2.7614306285277e-40
6.332000399224e-40
1.3836447015425e-39
2.8857452113269e-39
5.7525731233118e-39
1.0975151765838e-38
2.0064794588267e-38
3.5190756841746e-38
5.9272282582214e-38
9.5969409688375e-38
1.495108036086e-37
2.2430877072011e-37
3.2434362488621e-37
4.5235602272323e-37
6.0894984716808e-37
7.9177393094844e-37
9.9498132993416e-37
1.209157263573e-36
1.4218382716837e-36
1.6186365564407e-36
1.7848420589203e-36
1.9072577841784e-36
1.9759474007697e-36
1.9855656494503e-36
1.9360345651231e-36
1.8324413606567e-36
1.684204647092e-36
1.503691675418e-36
1.3045649524457e-36
1.1001513044248e-36
9.0208774295631e-37
7.1941269203649e-37
5.581584497652e-37
4.2140379477013e-37
3.0967532754376e-37
2.2155533719059e-37
1.5435496815373e-37
1.0473988556521e-37
6.9237645721871e-38
4.4595623028019e-38
2.7992306818052e-38
1.7125929232755e-38
1.0214260214762e-38
5.9396612380696e-39
3.3680540318103e-39
1.8625852111397e-39
1.0046769772914e-39
5.2863977310016e-40
2.7137073025635e-40
1.3591866733729e-40
6.6427574545802e-41
3.1681627960164e-41
1.4746548736553e-41
6.6992735351813e-42
2.970621641564e-42
1.2858017967209e-42
5.432872518565e-43
2.2409539999096e-43
9.0240283541232e-44
3.5476870231022e-44
1.3616896268833e-44
5.1027761927246e-45
1.8669620761325e-45
6.6691002330583e-46
2.3259537721286e-46
7.9201547964399e-47
2.6330484704623e-47
1.2449050782802e-47
0
0
0
0
0
0
0
-8.9638324052478e-49
-5.3308227723294e-47
-1.572183340009e-45
-3.0648876117695e-44
-4.4412652737078e-43
-5.1003309966316e-42
-4.832409047807e-41
-3.8826319667284e-40
-2.6980935576694e-39
-1.6455648052499e-38
-8.9060044175586e-38
-4.3124837865541e-37
-1.8792430792074e-36
-7.3958859102047e-36
-2.6312934464076e-35
-8.4415225531063e-35
-2.4218487431016e-34
-6.091447718344e-34
-1.2780081093853e-33
-1.8940022778006e-33
-1.3800565250666e-35
1.3900766997504e-32
6.9702358067663e-32
2.4873795519773e-31
7.5054902851845e-31
2.0233008000586e-30
4.9977014988424e-30
1.1471683886444e-29
2.4688102469147e-29
5.0119269391461e-29
9.6410810375372e-29
1.7634134125056e-28
3.0753714883624e-28
5.1257520862492e-28
8.1806294982553e-28
1.2523521734361e-27
1.8417617819059e-27
2.6055410086043e-27
3.5502355205395e-27
4.6645048984567e-27
5.9156416147552e-27
7.2489454773177e-27
8.5906763205526e-27
9.8546088422481e-27
1.095141102662e-26
1.179937667102e-26
1.2334660492864e-26
1.251920482684e-26
1.2345002467785e-26
1.1834086486428e-26
1.1034477147885e-26
1.001304125533e-26
8.8466741705146e-27
7.6133312669994e-27
6.3842385258248e-27
5.2181964701317e-27
4.1583849120991e-27
3.2315990289333e-27
2.4494871639024e-27
1.8111587242684e-27
1.3064847225076e-27
9.1949105940212e-28
6.3139764842708e-28
4.2303632766659e-28
2.7654804197753e-28
1.7639021125727e-28
1.0976843647609e-28
6.6644530212979e-29
3.9474667327047e-29
2.2809785911636e-29
1.2857430955643e-29
7.0696704952722e-30
3.7917390252613e-30
1.9836047259277e-30
1.0121230595276e-30
5.0368379380144e-31
2.4446401228383e-31
1.1571528381659e-31
5.3416127206886e-32
2.4046247302288e-32
1.0556085196483e-32
4.5188339316251e-33
1.8862733128292e-33
7.6775695623066e-34
3.0469760556047e-34
1.1790291832062e-34
4.4480843377586e-35
1.6360460848579e-35
5.8663966877629e-36
2.0505860727095e-36
6.9869941011512e-37
2.3204984470186e-37
1.0916345154509e-37
0
0
0
0
0
0
-3.9764272022994e-47
-2.4704672148871e-45
-7.617485179477e-44
-1.5542058135175e-42
-2.3604738052135e-41
-2.8463373939401e-40
-2.8383746858238e-39
-2.4074142414327e-38
-1.7727497746773e-37
-1.1512167879958e-36
-6.6746361453929e-36
-3.489557003529e-35
-1.6585518389263e-34
-7.2154294928604e-34
-2.8898151325261e-33
-1.070746703994e-32
-3.685932179725e-32
-1.1831452128843e-31
-3.5524969657281e-31
-1.0005199667693e-30
-2.6493694607949e-30
-6.6094160924248e-30
-1.5560554222597e-29
-3.4619922600681e-29
-7.2864878782159e-29
-1.4517538105689e-28
-2.7387526468306e-28
-4.8906038175512e-28
-8.2578275659008e-28
-1.315653600367e-27
-1.9703426582131e-27
-2.7553834909857e-27
-3.5550326260932e-27
-4.1326767714288e-27
-4.0957947219219e-27
-2.8783971980786e-27
2.446505392728e-28
6.0996947104724e-27
1.5508662097033e-26
2.9143461426569e-26
4.7361517829619e-26
7.0054533255542e-26
9.6547096607552e-26
1.2557709574589e-25
1.5537583285551e-25
1.8384512319455e-25
2.0880661731192e-25
2.2828109038886e-25
2.4074737123337e-25
2.4533418475818e-25
2.4191240396194e-25
2.3107612895952e-25
2.140231516397e-25
1.9236337433974e-25
1.678938850487e-25
1.4238033613962e-25
1.1737715259375e-25
9.410678871979e-26
7.3404345102488e-26
5.5721600864248e-26
4.1176090842498e-26
2.962708273882e-26
2.0760776004092e-26
1.4170525767607e-26
9.4228573089174e-27
6.1050802696201e-27
3.8544517149408e-27
2.3715933798128e-27
1.4222063619612e-27
8.3131066763731e-28
4.7366558900476e-28
2.6309571419826e-28
1.4246612023742e-28
7.5211589723581e-29
3.8712393575709e-29
1.9427707750034e-29
9.5062923000906e-30
4.5355325499846e-30
2.1099886343004e-30
9.5713142246341e-31
4.2335562302739e-31
1.8259201453385e-31
7.678899613561e-32
3.1488550369687e-32
1.2590300374134e-32
4.9084011137795e-33
1.8657469797778e-33
6.9144838098579e-34
2.4982962407808e-34
8.800052818018e-35
3.0217665468819e-35
1.0114512013523e-35
3.2999576460754e-36
1.513094991912e-36
0
0
0
0
0
1.3201018699604e-48
-1.1398699929394e-45
-7.2466979903345e-44
-2.2338052377525e-42
-4.5320010510026e-41
-6.8316946929222e-40
-8.1709369114611e-39
-8.0805592739908e-38
-6.7975735796431e-37
-4.9658768112786e-36
-3.2004554706828e-35
-1.8424053753409e-34
-9.5688288517926e-34
-4.520707753572e-33
-1.9562199982899e-32
-7.7987897001052e-32
-2.878776858617e-31
-9.8818984469355e-31
-3.1663855977131e-30
-9.5020303964964e-30
-2.6783399028118e-29
-7.1093865607653e-29
-1.7811794690243e-28
-4.2205581554193e-28
-9.4752879371473e-28
-2.0186097967032e-27
-4.0863411117947e-27
-7.8692409661506e-27
-1.4429363571594e-26
-2.5210257063011e-26
-4.1986488344129e-26
-6.6664697103908e-26
-1.0088336139962e-25
-1.453918287067e-25
-1.9925207727612e-25
-2.5899144768046e-25
-3.1791990195186e-25
-3.6587904353564e-25
-3.8967833673524e-25
-3.7437498104965e-25
-3.0537145969348e-25
-1.7107463688807e-25
3.4354974607072e-26
3.0876351439512e-25
6.4085824681497e-25
1.0105639752092e-24
1.3909823710592e-24
1.7516942934929e-24
2.0628279253481e-24
2.2991305155809e-24
2.443279540013e-24
2.4878476782899e-24
2.4356418448116e-24
2.2984843845837e-24
2.0948049707422e-24
1.8465972918191e-24
1.5763363813684e-24
1.3043626137675e-24
1.0470602688753e-24
8.1594925080057e-25
6.1762100860142e-25
4.5431985084396e-25
3.2491227086677e-25
2.2599308761314e-25
1.5292858083734e-25
1.0070929407744e-25
6.4557457607927e-26
4.0291694782247e-26
2.4488519062519e-26
1.4496517476187e-26
8.3596308859568e-27
4.6967076754063e-27
2.5712074863943e-27
1.3717217924752e-27
7.1321902813298e-28
3.6144757459063e-28
1.7855252022712e-28
8.5983117789892e-29
4.0365552276183e-29
1.84747673164e-29
8.2439115452858e-30
3.586625142523e-30
1.5214065114772e-30
6.2923922159331e-31
2.5374560071894e-31
9.9767912093987e-32
3.8246061361321e-32
1.4294742196786e-32
5.2089055255157e-33
1.8504629908908e-33
6.4085203426705e-34
2.1634888621924e-34
7.1194029622808e-35
2.283459592887e-35
1.0216536185008e-35
0
0
0
0
0
4.1438315842081e-47
-1.6097016594143e-44
-1.0569432308508e-42
-3.2719053063183e-41
-6.6241505291895e-40
-9.9409872774387e-39
-1.1824271527894e-37
-1.1623240080235e-36
-9.7168724431255e-36
-7.0538758726538e-35
-4.5177064351787e-34
-2.5846936952774e-33
-1.3343317123076e-32
-6.2671700044194e-32
-2.6967115481598e-31
-1.0692989119999e-30
-3.9268992831842e-30
-1.3414626373513e-29
-4.2789576512417e-29
-1.2787356990179e-28
-3.5908009811792e-28
-9.4997002604654e-28
-2.3732959176229e-27
-5.610776170874e-27
-1.257565897926e-26
-2.676665605336e-26
-5.4181320218152e-26
-1.0443734029879e-25
-1.9190915293089e-25
-3.3649306435422e-25
-5.634103407845e-25
-9.0132962327074e-25
-1.3781518472953e-24
-2.0141585879516e-24
-2.8129184287975e-24
-3.7512915364672e-24
-4.7708346315699e-24
-5.773532905417e-24
-6.6247027811007e-24
-7.1648858879029e-24
-7.2306344214206e-24
-6.6816586979573e-24
-5.429537244729e-24
-3.4618343636045e-24
-8.5560967452908e-25
2.2238940997534e-24
5.5404881662749e-24
8.8176801821977e-24
1.1777066835291e-23
1.4177046895351e-23
1.5844483224471e-23
1.669375790061e-23
1.6730666806941e-23
1.604192948269e-23
1.4773881904308e-23
1.3105557447998e-23
1.1221619666697e-23
9.289659238788e-24
7.4446543101639e-24
5.7814679779679e-24
4.3546004512453e-24
3.1833280749242e-24
2.2599344664641e-24
1.5588783948411e-24
1.0452512653886e-24
6.8153241223717e-25
4.3226931880258e-25
2.6677917651465e-25
1.6024777738091e-25
9.370766295396e-26
5.3356920986562e-26
2.9588228241163e-26
1.5982001522647e-26
8.4099063601144e-27
4.3117711985278e-27
2.1541459079577e-27
1.0488024027021e-27
4.9767978641779e-28
2.3018517590097e-28
1.0377765106477e-28
4.560921865883e-29
1.9540790750109e-29
8.1618026954907e-30
3.3234849835584e-30
1.3193796931941e-30
5.1063987749352e-31
1.9267467260846e-31
7.0874722665457e-32
2.5415732116801e-32
8.8846819662033e-33
3.027530425735e-33
1.0055825796493e-33
3.255372288282e-34
1.0270799423208e-34
4.4882745913494e-35
0
0
0
0
1.2929225526525e-58
6.4818194599425e-46
-1.4890926118395e-43
-1.0184602654136e-41
-3.1735713989182e-40
-6.4201584817255e-39
-9.6013598707248e-38
-1.1366305709589e-36
-1.1113059324642e-35
-9.2373140657351e-35
-6.6662812357419e-34
-4.2440184111276e-33
-2.4136002804165e-32
-1.2385908240495e-31
-5.7831626722469e-31
-2.4739335942907e-30
-9.7532046263566e-30
-3.5614894718193e-29
-1.2098637632163e-28
-3.8381085038219e-28
-1.1408541853187e-27
-3.1868634183966e-27
-8.3880771154783e-27
-2.0852051466145e-26
-4.9061003800349e-26
-1.0945703088359e-25
-2.3195461210842e-25
-4.6759374224896e-25
-8.9788785327551e-25
-1.644278670853e-24
-2.8745731357809e-24
-4.8016747033593e-24
-7.6690167402372e-24
-1.1717739029627e-23
-1.7133585045899e-23
-2.397694244701e-23
-3.2106630272075e-23
-4.1115059269359e-23
-5.0296568878747e-23
-5.8669434305346e-23
-6.5063775767334e-23
-6.8273080975094e-23
-6.724944470631e-23
-6.1306953455527e-23
-5.0289232846851e-23
-3.4659763579445e-23
-1.5487727847814e-23
5.6752461661545e-24
2.7007019457814e-23
4.6674618782535e-23
6.3090427058396e-23
7.5116161668082e-23
8.2179945816085e-23
8.4292868110388e-23
8.1973520878375e-23
7.6106448626291e-23
6.776957332055e-23
5.8065610483249e-23
4.7984923279903e-23
3.8315463489572e-23
2.9603072718453e-23
2.2155414234904e-23
1.6076803072829e-23
1.1319421664104e-23
7.7380010293137e-24
5.138627762201e-24
3.3165005155573e-24
2.081140092514e-24
1.2701720068482e-24
7.5421794104854e-25
4.3583463571115e-25
2.4515525752094e-25
1.342603094002e-25
7.1601672065083e-26
3.7191250811352e-26
1.8817646651528e-26
9.2758574222238e-27
4.455100322024e-27
2.0850650239648e-27
9.5099536728901e-28
4.2273299904325e-28
1.8315114836181e-28
7.7344673342549e-29
3.1837932255111e-29
1.2775103173329e-29
4.996842519109e-30
1.9051991496263e-30
7.0810171084144e-31
2.5653928781309e-31
9.0594728770472e-32
3.1183584889781e-32
1.0461692457165e-32
3.4206203115712e-33
1.0899448365277e-33
3.3842785916452e-34
1.4455289089097e-34
0
0
0
0
4.2011183073015e-57
6.7354985092718e-45
-1.0113222845784e-42
-7.2833176053012e-41
-2.289560286241e-39
-4.6329503546074e-38
-6.908792119451e-37
-8.1436416556758e-36
-7.9219550243422e-35
-6.5487427876231e-34
-4.6989601043147e-33
-2.973987321823e-32
-1.6812646000417e-31
-8.5760877456186e-31
-3.9802390036044e-30
-1.6924335450958e-29
-6.6321015573156e-29
-2.4072285517989e-28
-8.1284115978486e-28
-2.5631345377019e-27
-7.5730394802275e-27
-2.1027633635573e-26
-5.5014584928648e-26
-1.3594274184507e-25
-3.1793766455451e-25
-7.0511350281668e-25
-1.4854121722147e-24
-2.9769399762057e-24
-5.6835949531921e-24
-1.034989002053e-23
-1.7995958409236e-23
-2.9905159884776e-23
-4.7532585846007e-23
-7.2308033958713e-23
-1.0532556743004e-22
-1.4694387765681e-22
-1.9636193664993e-22
-2.5127145445464e-22
-3.0770644054305e-22
-3.6019712595092e-22
-4.0228462462803e-22
-4.2737027416161e-22
-4.2977889938138e-22
-4.0583612283554e-22
-3.5472386606154e-22
-2.789025271614e-22
-1.8397237550896e-22
-7.7970628711199e-23
2.9769072747096e-23
1.2996801536306e-22
2.1469544805178e-22
2.7835926333438e-22
3.1823244467683e-22
3.3446658120628e-22
3.2965562120553e-22
3.080954378358e-22
2.7492156663626e-22
2.3529739931164e-22
1.9377959302708e-22
1.5392481944752e-22
1.1814086110423e-22
8.7739163892912e-23
6.3121572472671e-23
4.4030346073859e-23
2.9802114258777e-23
1.9585760903909e-23
1.2504546316216e-23
7.7594582296146e-24
4.6817143930927e-24
2.7475113335423e-24
1.5687968051486e-24
8.7176924586251e-25
4.715685293393e-25
2.4836186816264e-25
1.273794659338e-25
6.3629177195002e-26
3.0960999795635e-26
1.4676655857186e-26
6.7785584836011e-27
3.0505899600127e-27
1.3378230973772e-27
5.7175284455894e-28
2.381407904959e-28
9.6669815841994e-29
3.824638891786e-29
1.4748176312248e-29
5.5428817371695e-30
2.0303860329163e-30
7.248679770309e-31
2.5221062535658e-31
8.5521280540131e-32
2.825978503876e-32
9.099554897938e-33
2.8549346020326e-33
8.7269050626206e-34
3.6453874553139e-34
0
0
0
0
6.7761479554482e-56
5.2300320433617e-44
-5.3488651992666e-42
-4.1177336669803e-40
-1.3092350272312e-38
-2.6526471721388e-37
-3.946618051235e-36
-4.6336554921644e-35
-4.4857709421741e-34
-3.6884270165443e-33
-2.6316538572307e-32
-1.6558630362001e-31
-9.3051504391782e-31
-4.7178016467337e-30
-2.1761752160994e-29
-9.1961701142117e-29
-3.5812600582603e-28
-1.2917256542791e-27
-4.3341606292667e-27
-1.3579812109513e-26
-3.9864915979981e-26
-1.0997233707534e-25
-2.8583612915648e-25
-7.016428338976e-25
-1.6300448778746e-24
-3.5908291113282e-24
-7.5135870337131e-24
-1.4956493043904e-23
-2.8362706941516e-23
-5.1303189772799e-23
-8.8614315213321e-23
-1.4630266771778e-22
-2.3107708641362e-22
-3.4940089867088e-22
-5.060500465086e-22
-7.0231216817707e-22
-9.3413862955003e-22
-1.190712255748e-21
-1.4539527464018e-21
-1.6993958492603e-21
-1.8986352097506e-21
-2.0231458556791e-21
-2.0489069858944e-21
-1.9609301853795e-21
-1.7566887296463e-21
-1.4475944595125e-21
-1.0580627867668e-21
-6.2224687351989e-22
-1.7906115962249e-22
2.3349913953233e-22
5.8360759990588e-22
8.4944614958835e-22
1.0210371969902e-21
1.0999587688563e-21
1.0972889119356e-21
1.0304367448694e-21
9.1962774226612e-22
7.847282675732e-22
6.428777788919e-22
5.0712857132336e-22
3.8604902010425e-22
2.8407787166021e-22
2.0234184865974e-22
1.3965576362875e-22
9.3485617780748e-23
6.0738905713597e-23
3.8326371077142e-23
2.3500009318545e-23
1.4007961256393e-23
8.1205768712994e-24
4.5798187548479e-24
2.5135239497938e-24
1.3427567229274e-24
6.9836468975683e-25
3.5368428926647e-25
1.744473465559e-25
8.3807851344199e-26
3.9221550188249e-26
1.788236077161e-26
7.9436217573302e-27
3.4382173227695e-27
1.4500769386243e-27
5.9594811905405e-28
2.3866977022088e-28
9.3146199136874e-29
3.5425361951471e-29
1.3129346069386e-29
4.74182252176e-30
1.6688226652804e-30
5.7229845429778e-31
1.9123293126504e-31
6.2259572219513e-32
1.9748033198744e-32
6.1021375635468e-33
1.8367155291309e-33
7.5061081740453e-34
0
0
0
0
7.238558531079e-55
3.2363328946752e-43
-2.2750367716028e-41
-1.9142410138666e-39
-6.1756928647636e-38
-1.2543537942869e-36
-1.8630685537703e-35
-2.1795302637695e-34
-2.1002476592012e-33
-1.7179494431956e-32
-1.2189107177007e-31
-7.62490639694e-31
-4.2591784649396e-30
-2.1462437362603e-29
-9.8384328094094e-29
-4.1313654468887e-28
-1.5986068409741e-27
-5.7287601195805e-27
-1.9096102963067e-26
-5.943560131356e-26
-1.7330835617102e-25
-4.7484252611023e-25
-1.2256948086165e-24
-2.9877394526581e-24
-6.8921045302718e-24
-1.5074407308389e-23
-3.1315428721958e-23
-6.1884945189218e-23
-1.1650210205316e-22
-2.0919804476657e-22
-3.5871708587135e-22
-5.8797170318386e-22
-9.220481784668e-22
-1.3844201384141e-21
-1.991409311951e-21
-2.7455060885482e-21
-3.6288007587771e-21
-4.5982708321804e-21
-5.5847863815273e-21
-6.4972636808177e-21
-7.2324002740836e-21
-7.6890459260737e-21
-7.7848644128545e-21
-7.4719578688338e-21
-6.7479245504989e-21
-5.6595577031203e-21
-4.2979363044665e-21
-2.7856126943159e-21
-1.258427605767e-21
1.5433087974221e-22
1.3474774292792e-21
2.2519905225453e-21
2.8398512894312e-21
3.1216576711261e-21
3.1385268934873e-21
2.9507381857438e-21
2.625782868408e-21
2.2280581767441e-21
1.8116039685423e-21
1.4163356515589e-21
1.0674284077844e-21
7.7700790914983e-22
5.4713207615252e-22
3.7314413215016e-22
2.4672925392956e-22
1.5830409012629e-22
9.8627936990589e-23
5.9704164808141e-23
3.5133895125961e-23
2.0107161650304e-23
1.1195265251188e-23
6.0660799843554e-24
3.1994925354687e-24
1.6430227815561e-24
8.2161770470785e-25
4.0014762453495e-25
1.8982085323518e-25
8.77162538685e-26
3.9487514022989e-26
1.7318380600461e-26
7.4001563199537e-27
3.0808740203299e-27
1.2497272869411e-27
4.9393476259819e-28
1.9021199012751e-28
7.1370272534909e-29
2.6091647133921e-29
9.293516076891e-30
3.2250681126438e-30
1.0903347195538e-30
3.5910425260348e-31
1.1521109108628e-31
3.6003921796076e-32
1.0958501103272e-32
3.2483104214069e-33
1.2990577001706e-33
0
0
0
0
5.76013803935e-54
1.6621161341285e-42
-7.886027350644e-41
-7.5118298787525e-39
-2.4692554622375e-37
-5.0350086735027e-36
-7.470981475579e-35
-8.7120412531683e-34
-8.3584467947856e-33
-6.8024135645631e-32
-4.7998935358971e-31
-2.9851968317516e-30
-1.6574926480572e-29
-8.3008599487714e-29
-3.781227771189e-28
-1.5776700424241e-27
-6.0650920965386e-27
-2.159183793742e-26
-7.1493782412989e-26
-2.2101743933856e-25
-6.4005559991314e-25
-1.7415189026179e-24
-4.4637889601303e-24
-1.0803628262426e-23
-2.4742761008565e-23
-5.3724332636872e-23
-1.1078740005855e-22
-2.1731363192019e-22
-4.0604730508666e-22
-7.236270645071e-22
-1.2314012191407e-21
-2.0029642527984e-21
-3.1168932889922e-21
-4.6438086915467e-21
-6.6282274259877e-21
-9.0675615603435e-21
-1.1892570710632e-20
-1.4954905768649e-20
-1.8027360895637e-20
-2.0820639903842e-20
-2.3016948413725e-20
-2.4316301267362e-20
-2.4487339238764e-20
-2.3412040154545e-20
-2.1113959591496e-20
-1.7762733030233e-20
-1.3652791978632e-20
-9.1601679336243e-21
-4.6862235119424e-21
-5.9981147488237e-22
2.810904863586e-21
5.368681713431e-21
7.0158258153824e-21
7.8025474016652e-21
7.8603591570447e-21
7.3680132317355e-21
6.5175590678246e-21
5.4864762786694e-21
4.4192411710146e-21
3.4189755362169e-21
2.5476873360039e-21
1.8324045915938e-21
1.2742418024763e-21
8.5788737243951e-22
5.5981827096763e-22
3.5441579999987e-22
2.1785859779553e-22
1.3011410324723e-22
7.5545408569655e-23
4.2661019973341e-23
2.3440322365201e-23
1.253555156326e-23
6.5265215677694e-24
3.3087647132316e-24
1.6336651007237e-24
7.8564029650659e-25
3.6803141863555e-25
1.6794703241748e-25
7.4662627652813e-26
3.2336138893859e-26
1.364370255139e-26
5.6083701382596e-27
2.2459460221289e-27
8.7622427819695e-28
3.3302524156696e-28
1.2330339615047e-28
4.4473007255514e-29
1.5625226519892e-29
5.3474443417004e-30
1.7825214569362e-30
5.7871741210444e-31
1.8298368887966e-31
5.6342837441867e-32
1.6893025574841e-32
4.9314610181118e-33
1.9302140625823e-33
0
0
0
0
3.641970199812e-53
7.2857200681804e-42
-2.2096978303684e-40
-2.533723681657e-38
-8.5331384988702e-37
-1.7499605259096e-35
-2.5962400480818e-34
-3.0192629598739e-33
-2.8848774021256e-32
-2.3363423325628e-31
-1.6396626873334e-30
-1.0138996261905e-29
-5.5958418703681e-29
-2.7851499029932e-28
-1.260687634307e-27
-5.2262413752667e-27
-1.9960306541293e-26
-7.058948128969e-26
-2.3217095635117e-25
-7.1289818976277e-25
-2.0504754801373e-24
-5.5408576120609e-24
-1.4103950735349e-23
-3.3897741851481e-23
-7.7088040229615e-23
-1.6619501820046e-22
-3.4026028660005e-22
-6.6258505495271e-22
-1.2289034268428e-21
-2.1736361342467e-21
-3.6706080166138e-21
-5.9238509172923e-21
-9.1445501983942e-21
-1.3512423846952e-20
-1.9123981166674e-20
-2.5935539295064e-20
-3.3714050860206e-20
-4.2011619739618e-20
-5.0178113379841e-20
-5.7419654200014e-20
-6.289991741862e-20
-6.5868882116513e-20
-6.5793886971138e-20
-6.2464124109545e-20
-5.6043851037451e-20
-4.7060761423382e-20
-3.6330901451621e-20
-2.4835873104889e-20
-1.3577905341972e-20
-3.4414678705632e-21
4.9136474113315e-21
1.1111749127247e-20
1.5068478656998e-20
1.6952042870191e-20
1.7112697542836e-20
1.5998546715062e-20
1.4075051367276e-20
1.1761357001902e-20
9.3903059413775e-21
7.192678198975e-21
5.3013447863831e-21
3.7684292837849e-21
2.5882553207945e-21
1.7201990591791e-21
1.1077012991981e-21
6.9183717215167e-22
4.1948706464175e-22
2.4711730399251e-22
1.415274209882e-22
7.8843374749455e-23
4.2743204933444e-23
2.2557784774066e-23
1.15922627768e-23
5.8018533209102e-24
2.8284639979115e-24
1.3432522099515e-24
6.2145332963053e-25
2.8009928250187e-25
1.2298929969465e-25
5.2609905165573e-26
2.1923072375549e-26
8.8992887864705e-27
3.5189565606358e-27
1.3553798296819e-27
5.0848678924079e-28
1.8580272797459e-28
6.6124037026257e-29
2.2918230276394e-29
7.7356141696388e-30
2.5425852903842e-30
8.1375784768717e-31
2.5358415348935e-31
7.6934399712558e-32
2.2722199489668e-32
6.5323052417552e-33
2.5025200242845e-33
0
0
0
0
1.9059075556036e-52
2.7819125151162e-41
-4.7464035759895e-40
-7.4362655695653e-38
-2.585384397535e-36
-5.3448480071826e-35
-7.9369073220403e-34
-9.2102863772729e-33
-8.7673973148459e-32
-7.0671490363768e-31
-4.9336524491703e-30
-3.0334811180485e-29
-1.6642613624794e-28
-8.2323825885622e-28
-3.702883373527e-27
-1.5252113288349e-26
-5.7873858162861e-26
-2.0333322119193e-25
-6.6438164142776e-25
-2.0266309702416e-24
-5.7908282312437e-24
-1.5545556235528e-23
-3.9311267646315e-23
-9.3862902467175e-23
-2.1205557234819e-22
-4.541525793901e-22
-9.2359957315414e-22
-1.786297053818e-21
-3.2900440627413e-21
-5.7777052584723e-21
-9.6846520717773e-21
-1.5509642696361e-20
-2.3750331218989e-20
-3.4801382753542e-20
-4.8824640067972e-20
-6.5614639873119e-20
-8.4494466052264e-20
-1.0428081821128e-19
-1.2334883714039e-19
-1.3980604936314e-19
-1.517555008247e-19
-1.5759997778612e-19
-1.5632247776343e-19
-1.4767960838223e-19
-1.3226437431274e-19
-1.1142605826041e-19
-8.7067281022544e-20
-6.1362590642886e-20
-3.6454196334308e-20
-1.4178706597719e-20
4.1329376626563e-21
1.7757690554964e-20
2.6579853231998e-20
3.1001393108427e-20
3.1791131195016e-20
2.9908319969133e-20
2.6335506352551e-20
2.1947547258157e-20
1.7431017954792e-20
1.3254920236004e-20
9.6831176737618e-21
6.8133521589953e-21
4.6271740133549e-21
3.0382890629478e-21
1.9316866815171e-21
1.1906526326752e-21
7.1226951091401e-22
4.1391946002469e-22
2.3384972285831e-22
1.2852405754715e-22
6.8751019554084e-23
3.5808796769865e-23
1.8165129977846e-23
8.976513147083e-24
4.3216140563214e-24
2.0271018734448e-24
9.2639976816471e-25
4.1247933620259e-25
1.7892254557104e-25
7.560661766635e-26
3.1121225022662e-26
1.247744020329e-26
4.8723316021241e-27
1.852945502713e-27
6.8624038855819e-28
2.4748687441527e-28
8.6909111452036e-29
2.9716008611343e-29
9.8923955180494e-30
3.2060502391273e-30
1.0115014434737e-30
3.1063918807906e-31
9.2854265479299e-32
2.7012279717505e-32
7.6469339683488e-33
2.8672829053525e-33
0
0
0
0
8.4906450347879e-52
9.397425666618e-41
-6.1171974553739e-40
-1.9130223445508e-37
-6.9406415370617e-36
-1.4508300964459e-34
-2.1593063710562e-33
-2.5021662936679e-32
-2.3739558765358e-31
-1.9051484580742e-30
-1.323230957644e-29
-8.0907897995764e-29
-4.412816985395e-28
-2.1695482766711e-27
-9.6977170756893e-27
-3.96923964125e-26
-1.4965524340683e-25
-5.2246113421315e-25
-1.696368023569e-24
-5.1424225213303e-24
-1.4603832446348e-23
-3.8968265948692e-23
-9.7958703108499e-23
-2.3252737586915e-22
-5.2227732537143e-22
-1.1120409681373e-21
-2.2482326197994e-21
-4.3220831874138e-21
-7.9111233477376e-21
-1.380309902216e-20
-2.2980167717636e-20
-3.6539447679994e-20
-5.5532918936657e-20
-8.0727918598568e-20
-1.1231769247006e-19
-1.4964267071752e-19
-1.9100522355193e-19
-2.3366023387701e-19
-2.7403280779106e-19
-3.0815654741051e-19
-3.3225860105325e-19
-3.4336695614471e-19
-3.398029895447e-19
-3.2145390340622e-19
-2.8978112017299e-19
-2.4758570191702e-19
-1.9859711000757e-19
-1.469686854631e-19
-9.6759232469965e-20
-5.1468203205618e-20
-1.3680230092704e-20
1.5138168029443e-20
3.4666816759008e-20
4.5591326486598e-20
4.9332654859856e-20
4.7710748897883e-20
4.2614072718437e-20
3.5735004531408e-20
2.8405218515091e-20
2.1535480921043e-20
1.5640493853448e-20
1.0916968804916e-20
7.3422688380218e-21
4.7682421506215e-21
2.9954838936524e-21
1.8231648364434e-21
1.0764909561998e-21
6.1731966284079e-22
3.4413931662615e-22
1.8664445666286e-22
9.8539801574435e-23
5.066588246894e-23
2.5378029956027e-23
1.2385615194303e-23
5.8902138356566e-24
2.7296173179973e-24
1.2325633191306e-24
5.4227208557878e-25
2.3242375358219e-25
9.7039805797718e-26
3.9461745695803e-26
1.5628337969437e-26
6.0272084568435e-27
2.2633273867299e-27
8.2750556965091e-28
2.9454699897134e-28
1.02062997484e-28
3.4425721897916e-29
1.1302375615217e-29
3.6115874152246e-30
1.123145047632e-30
3.3989706449915e-31
1.000906469204e-31
2.8676768601113e-32
7.9929770652106e-33
2.933117231244e-33
0
0
0
0
3.2870032579036e-51
2.8428376122372e-40
5.8321984732061e-40
-4.32332084392e-37
-1.6634725031507e-35
-3.5302483511346e-34
-5.2751601733846e-33
-6.1096467688774e-32
-5.7805488450498e-31
-4.620186644197e-30
-3.1933787309185e-29
-1.9420483494618e-28
-1.0531391160236e-27
-5.1468306644435e-27
-2.2865623058933e-26
-9.3012709937988e-26
-3.48545457005e-25
-1.2094676743044e-24
-3.9038962003073e-24
-1.1767054100827e-23
-3.3234061351542e-23
-8.8214604327928e-23
-2.2063423580276e-22
-5.2116316609523e-22
-1.1649660192887e-21
-2.4686287330362e-21
-4.966777858868e-21
-9.5009394026158e-21
-1.7300653606838e-20
-3.0021951118219e-20
-4.9696523297805e-20
-7.8544711190208e-20
-1.1862538624435e-19
-1.7133942113113e-19
-2.3686330588088e-19
-3.1364507303129e-19
-3.9811902473427e-19
-4.8476967446707e-19
-5.6660089549787e-19
-6.3596737943997e-19
-6.8563407187781e-19
-7.0986925030963e-19
-7.0535943826012e-19
-6.7176270553691e-19
-6.1178901120554e-19
-5.30798633669e-19
-4.3601350096465e-19
-3.3550744505882e-19
-2.3716127733678e-19
-1.4774435607667e-19
-7.2239305861722e-20
-1.3479540424593e-20
2.7876461177215e-20
5.3059619517632e-20
6.4670964606683e-20
6.6047477630436e-20
6.0645640547393e-20
5.1553595193823e-20
4.1193934865801e-20
3.1222364334271e-20
2.2582398214e-20
1.5653983092343e-20
1.0434466319295e-20
6.7060237720269e-21
4.1646049889326e-21
2.5038838052534e-21
1.4597645560187e-21
8.2635812562757e-22
4.5473425930887e-22
2.4346738699612e-22
1.2691564442082e-22
6.4445519838307e-23
3.1886677635502e-23
1.5375733429823e-23
7.2258943395503e-24
3.3094578654562e-24
1.4770160041184e-24
6.4226490033348e-25
2.7206574724236e-25
1.1225176584926e-25
4.5102881822249e-26
1.7645953149822e-26
6.721411146225e-27
2.4923096532485e-27
8.9955476749528e-28
3.1600952785372e-28
1.0804039803913e-28
3.5946297137665e-29
1.1637864224218e-29
3.6661643491978e-30
1.1236639466908e-30
3.3505035967697e-31
9.7183399055312e-32
2.7418069496001e-32
7.523041702532e-33
2.7014505082427e-33
0
0
0
0
1.123337346617e-50
7.7771244220157e-40
7.0822742917245e-39
-8.5421860916251e-37
-3.5766688237565e-35
-7.7497047124957e-34
-1.1652986996941e-32
-1.3505471601094e-31
-1.2751565892901e-30
-1.0155094899029e-29
-6.987040140426e-29
-4.2272335302571e-28
-2.2796287704048e-27
-1.1076361454482e-26
-4.8918274756445e-26
-1.9781639981017e-25
-7.3698267634323e-25
-2.5430571554692e-24
-8.1647620219556e-24
-2.4487205511675e-23
-6.8839010401439e-23
-1.8193709861616e-22
-4.5322619875936e-22
-1.0665431426601e-21
-2.3754342178359e-21
-5.015695501517e-21
-1.005489142368e-20
-1.9162281017067e-20
-3.4757869413947e-20
-6.007151032511e-20
-9.9024415012927e-20
-1.5585405028818e-19
-2.3445486481908e-19
-3.3749876248836e-19
-4.6549502170666e-19
-6.1599155124246e-19
-7.8307706926264e-19
-9.5726353583584e-19
-1.1258095337379e-18
-1.2736234625475e-18
-1.3849373300452e-18
-1.445769009481e-18
-1.4467531632194e-18
-1.3854758868921e-18
-1.2673844438829e-18
-1.1048247931034e-18
-9.1453234937538e-19
-7.144818028951e-19
-5.2106825461985e-19
-3.4721075771642e-19
-2.0147483007538e-19
-8.8001387311455e-20
-6.9739933741798e-21
4.456843590878e-20
7.1706022505563e-20
8.0536160082288e-20
7.7158879346438e-20
6.6902531392425e-20
5.3878858102538e-20
4.0866175069413e-20
2.9444278897904e-20
2.0270175121048e-20
1.3390237688009e-20