/*--------------------------------*- C++ -*----------------------------------*\
  =========                 |
  \\      /  F ield         | OpenFOAM: The Open Source CFD Toolbox
   \\    /   O peration     | Website:  https://openfoam.org
    \\  /    A nd           | Version:  7
     \\/     M anipulation  |
\*---------------------------------------------------------------------------*/
FoamFile
{
    version     2.0;
    format      ascii;
    class       volScalarField;
    location    "1";
    object      alpha.water;
}
// * * * * * * * * * * * * * * * * * * * * * * * * * * * * * * * * * * * * * //

dimensions      [0 0 0 0 0 0 0];

internalField   nonuniform List<scalar> 
6000
(
0
0
0
0
0
0
0
0
0
0
0
0
0
0
0
0
0
0
0
0
0
0
0
0
0
0
0
0
0
0
0
0
0
0
0
0
0
0
0
0
0
0
0
0
0
0
0
0
0
0
0
0
0
0
0
0
0
0
0
0
0
0
0
0
0
0
0
0
0
0
0
0
0
0
0
0
0
0
0
0
0
0
0
0
0
0
0
0
0
0
0
0
0
0
0
0
0
0
0
0
0
0
0
0
0
0
0
0
0
0
0
0
0
0
0
0
0
0
0
0
0
0
0
0
0
0
0
0
0
0
0
0
0
0
0
0
0
0
0
0
0
0
0
0
0
0
0
0
0
0
0
0
0
0
0
0
0
0
0
0
0
0
0
0
0
0
0
0
0
0
0
0
0
0
0
0
0
0
0
0
0
0
0
0
0
0
0
0
0
0
0
0
0
0
0
0
0
0
0
0
0
0
0
0
0
0
0
0
0
0
0
0
0
0
0
0
0
0
0
0
0
0
0
0
0
0
0
0
0
0
0
0
0
0
0
0
0
0
0
0
0
0
0
0
0
0
0
0
0
0
0
0
0
0
0
0
0
0
0
0
0
0
0
0
0
0
0
0
0
0
0
0
0
0
0
0
0
0
0
0
0
0
0
0
0
0
0
0
0
0
0
0
0
0
0
0
0
0
0
0
0
0
0
0
0
0
0
0
0
0
0
0
0
0
0
0
0
0
0
0
0
0
0
0
0
0
0
0
0
0
0
0
0
0
0
0
0
0
0
0
0
0
0
0
0
0
0
0
0
0
0
0
0
0
0
0
0
0
0
0
0
0
0
0
0
0
0
0
0
0
0
0
0
0
0
0
0
0
0
0
0
0
0
0
0
0
0
0
0
0
0
0
0
0
0
0
0
0
0
0
0
0
0
0
0
0
0
0
0
2.0714229133291e-42
6.6914332317378e-41
1.0675066622587e-39
1.1210076016002e-38
8.7154569957183e-38
5.3499828425682e-37
2.7004067091641e-36
1.1525692568195e-35
4.2455453214857e-35
1.3708249161907e-34
3.9275558478422e-34
1.0084059728042e-33
2.3390580031171e-33
4.9349468924573e-33
9.5247499373313e-33
1.690020667117e-32
2.7685233831426e-32
4.2027848515168e-32
5.9316951947239e-32
7.8060092822683e-32
9.6029622941768e-32
1.1068921733113e-31
1.1979122587843e-31
1.2194682793113e-31
1.16968710912e-31
1.0587210241888e-31
9.0553136216326e-32
7.32788166384e-32
5.616940718437e-32
4.0824114459253e-32
2.8160345473947e-32
1.8451643108926e-32
1.149333234412e-32
6.8104714169803e-33
3.8415473615213e-33
2.0638748043786e-33
1.056655988473e-33
5.1577197260694e-34
2.4012304935454e-34
1.0666409770053e-34
4.5221641713115e-35
1.8303462280529e-35
7.0741532284187e-36
2.6112368341195e-36
9.2067445193577e-37
3.1009341497576e-37
9.9775916030093e-38
3.0669519511311e-38
9.0057328483446e-39
2.5259562519765e-39
6.7666210361535e-40
1.730940029163e-40
4.2272831475781e-41
9.853582958989e-42
2.1915100366341e-42
4.6489000919361e-43
9.4022636587137e-44
1.8121080867546e-44
3.3263973267233e-45
5.8122580216542e-46
9.6607481943017e-47
1.5263580029269e-47
2.2905235573998e-48
3.2618562126818e-49
4.403813757109e-50
5.6307990135667e-51
6.8106409752551e-52
7.7828005553063e-53
8.391034123941e-54
8.5225954902905e-55
8.141183755625e-56
7.300881857923e-57
6.1343698643331e-58
4.8185733145538e-59
3.5299488766229e-60
2.4052149365392e-61
1.5197724448257e-62
8.8755414051284e-64
4.7728537865943e-65
2.3533923954994e-66
1.0589094663622e-67
4.3239736025189e-69
1.5922249715995e-70
5.2479818895307e-72
1.5346809933262e-73
3.9397734361231e-75
8.7637286281989e-77
1.661657574762e-78
2.6288269825277e-80
3.3711893864288e-82
3.3859760952117e-84
0
0
0
0
0
0
0
-1.914662980978e-32
-5.2596467933598e-31
-7.0702265529621e-30
-6.1803454233635e-29
-3.9320212624005e-28
-1.9263514007435e-27
-7.4669650892034e-27
-2.2956219081296e-26
-5.3909466210107e-26
-8.1007888184112e-26
1.9978366782914e-26
6.6527483489847e-25
2.8959848306264e-24
8.8197700180748e-24
2.1978497695042e-23
4.7306910971172e-23
9.0325935537162e-23
1.5545263844059e-22
2.43792068383e-22
3.5126921775507e-22
4.6810765356768e-22
5.8024619342018e-22
6.7244136149581e-22
7.3198933771244e-22
7.5169984197273e-22
7.3113301355415e-22
6.7591287296368e-22
5.9568274758456e-22
5.0160842573621e-22
4.042138285161e-22
3.1195943908806e-22
2.3060793503064e-22
1.6321189338705e-22
1.1050472604895e-22
7.1502822471845e-23
4.4168722885004e-23
2.6020244123425e-23
1.4605459523519e-23
7.8052741279214e-24
3.9687396062329e-24
1.9190496004522e-24
8.8208950184809e-25
3.8529309752803e-25
1.5988446125316e-25
6.3016959914303e-26
2.3585837446205e-26
8.380958725625e-27
2.8267251505315e-27
9.047060757969e-28
2.7468502252443e-28
7.9088677453962e-29
2.1585835508071e-29
5.5820469839594e-30
1.3669451244162e-30
3.1678824012107e-31
6.9428155136438e-32
1.4377912468928e-32
2.8109109106991e-33
5.1824379394034e-34
9.0000155295269e-35
1.47026550489e-35
2.2560043567792e-36
3.245949897823e-37
4.3709325244741e-38
5.4967089554858e-39
6.4397733321573e-40
7.0093427247394e-41
7.0656871165752e-42
6.5725483411233e-43
5.6183335699736e-44
4.3921349831101e-45
3.1223202755085e-46
2.004925029432e-47
1.1535611474165e-48
5.8890117948964e-50
2.6351556682136e-51
1.0176209436085e-52
3.322888653927e-54
8.9216620147739e-56
1.8911581019584e-57
2.9676335453981e-59
3.0648981986101e-61
1.5628151164663e-63
6.1313975686437e-69
2.0471015871788e-70
6.0629859263387e-72
1.576130561273e-73
3.5497288160233e-75
6.813457498342e-77
1.0910478991941e-78
1.4159838843961e-80
1.4286770530232e-82
1.054745957487e-84
0
0
0
0
0
0
-8.4935969533968e-31
-2.5283003108844e-29
-3.7049662662057e-28
-3.5624514113408e-27
-2.5276781712432e-26
-1.4111213763823e-25
-6.4537685619308e-25
-2.4858419724232e-24
-8.22656236154e-24
-2.3743155414546e-23
-6.0449091491165e-23
-1.369541553019e-22
-2.779458372653e-22
-5.0765150913743e-22
-8.3664193078196e-22
-1.2444030925942e-21
-1.6647178512676e-21
-1.9834918482495e-21
-2.0563375827803e-21
-1.7455912282466e-21
-9.6665351909667e-22
2.7312279029384e-22
1.8592400026539e-21
3.5867624126475e-21
5.2052337899029e-21
6.4777256911934e-21
7.2353039450647e-21
7.4107124839199e-21
7.0431253802145e-21
6.2558815741381e-21
5.2173120177447e-21
4.0983663999416e-21
3.0391215771535e-21
2.1309118520648e-21
1.4144759975891e-21
8.8971535160535e-22
5.3071274665243e-22
3.0038993515802e-22
1.6141510378162e-22
8.2377987441937e-23
3.9941716707084e-23
1.8403447655174e-23
8.0594706947844e-24
3.3550334829291e-24
1.3276651926256e-24
4.9942460794354e-25
1.785659586958e-25
6.0673813079798e-26
1.9587204275337e-26
6.0058461405279e-27
1.7483771766217e-27
4.830025297476e-28
1.2655393091667e-28
3.1429355074536e-29
7.3928489775097e-30
1.6456854182419e-30
3.4636897973712e-31
6.8855727214695e-32
1.2913705471474e-32
2.2820036290283e-33
3.7941924206514e-34
5.9261610173349e-35
8.6798792351047e-36
1.189832154244e-36
1.5231136672013e-37
1.816256024614e-38
2.0118886491795e-39
2.0636311854573e-40
1.9529179761525e-41
1.6980286176724e-42
1.3499281175777e-43
9.7570252312892e-45
6.3686808944019e-46
3.7240002467125e-47
1.9316857824389e-48
8.7808004897648e-50
3.4439627573518e-51
1.1419468062623e-52
3.1127846670521e-54
6.6976491114762e-56
1.0666362239665e-57
1.1177761939188e-59
5.7821159588361e-62
1.1648249751923e-67
3.9401176218835e-69
1.1820948419659e-70
3.1123121444348e-72
7.0981037145971e-74
1.3794426990376e-75
2.2361621546384e-77
2.9374952198447e-79
2.99950685489e-81
2.2301587080679e-83
1.0748270565702e-85
0
0
0
0
0
2.8197204803306e-32
-1.1660030703811e-29
-3.5263637457238e-28
-5.1301542452304e-27
-4.8754368424963e-26
-3.4174235601427e-25
-1.8865569721688e-24
-8.5455798942034e-24
-3.266377704003e-23
-1.0750551822129e-22
-3.0935407089263e-22
-7.8755354682159e-22
-1.7904534539259e-21
-3.6620536544503e-21
-6.7776493669082e-21
-1.1399625225539e-20
-1.7472748010188e-20
-2.4430594938731e-20
-3.1121334509768e-20
-3.5948075333694e-20
-3.7243302690544e-20
-3.3784224805622e-20
-2.5264132139384e-20
-1.2521514075177e-20
2.5881998937721e-21
1.7650318628724e-20
3.0317460286395e-20
3.8885190690357e-20
4.2632425545172e-20
4.1847023386381e-20
3.7577756817838e-20
3.1239084708839e-20
2.4217541932195e-20
1.7592395189843e-20
1.2016189374887e-20
7.7367974495753e-21
4.7051004504923e-21
2.7069586359575e-21
1.4752549186955e-21
7.6242038576365e-22
3.7398082286016e-22
1.7423745534168e-22
7.7145509460843e-23
3.2473549164934e-23
1.2998967810161e-23
4.9487878377828e-24
1.791824457252e-24
6.1694116704996e-25
2.0194912422864e-25
6.2826834331204e-26
1.8568118877533e-26
5.2105788785373e-27
1.3875134333724e-27
3.5036537068718e-28
8.3829752247425e-29
1.8988351822284e-29
4.0678382178204e-30
8.2329514016326e-31
1.5723167409561e-31
2.8296874267409e-32
4.7919316363554e-33
7.6233826304278e-34
1.1372708164811e-34
1.5877626636022e-35
2.0698482513693e-36
2.5132255140171e-37
2.8342369535168e-38
2.9591156756758e-39
2.849862295579e-40
2.5211689364162e-41
2.0388641125342e-42
1.4987097939872e-43
9.9465694363488e-45
5.9123338147331e-46
3.1168370189552e-47
1.4396099729403e-48
5.7360018466416e-50
1.9317291968542e-51
5.3470101650116e-53
1.1680475552149e-54
1.8881991975475e-56
2.0081624276191e-58
1.0540459254695e-60
1.4553236488487e-66
4.9883374224696e-68
1.5162542917127e-69
4.0439267732745e-71
9.3409733901923e-73
1.8382908785959e-74
3.0172241434075e-76
4.0124521306938e-78
4.1471266606198e-80
3.1205823140182e-82
1.5183381437387e-84
3.5799443126193e-87
0
0
0
0
0
4.3396177743807e-31
-7.8053914495642e-29
-2.4248050539867e-27
-3.5183783607777e-26
-3.3147406916318e-25
-2.2997691407729e-24
-1.256520743325e-23
-5.635625941351e-23
-2.1340132953608e-22
-6.9611422375562e-22
-1.985814593995e-21
-5.0121588357876e-21
-1.1295705939847e-20
-2.2895345224976e-20
-4.1974484799466e-20
-6.9902022313516e-20
-1.0606329458291e-19
-1.4687499592326e-19
-1.8565773408605e-19
-2.1381090770351e-19
-2.2315288716619e-19
-2.0862410647158e-19
-1.7022799862835e-19
-1.1335233108406e-19
-4.7333995551297e-20
1.7120076178203e-20
7.0660653641165e-20
1.0728080995338e-19
1.2509290111019e-19
1.2592008048815e-19
1.1407526658082e-19
9.484419662934e-20
7.3144490948721e-20
5.2661512900069e-20
3.5543980945929e-20
2.2556755307351e-20
1.3489108193957e-20
7.614628858815e-21
4.0635736267201e-21
2.0525986670159e-21
9.8243406351933e-22
4.4596775981313e-22
1.9214635086933e-22
7.8622436788414e-23
3.0565483984765e-23
1.1292729025333e-23
3.9654406551432e-24
1.3233791462141e-24
4.1965354640855e-25
1.2640611909115e-25
3.6151039482688e-26
9.8108293540324e-27
2.5248400355179e-27
6.1570305675568e-28
1.4214733216081e-28
3.1039133490334e-29
6.4033544344617e-30
1.246529798914e-30
2.2866890965716e-31
3.9470243686847e-32
6.3998514722259e-33
9.7299109942677e-34
1.3842056301449e-34
1.8384802348034e-35
2.2739558621923e-36
2.6117545677136e-37
2.7765909289338e-38
2.7222630833438e-39
2.4511114570741e-40
2.0169754582065e-41
1.5082608660288e-42
1.0180622521181e-43
6.1531655242259e-45
3.2975440193027e-46
1.5479559519783e-47
6.2670499487319e-49
2.1441038081075e-50
6.0278802192276e-52
1.3371474203498e-53
2.1945502328861e-55
2.3691450386137e-57
1.262011855044e-59
1.3449899255558e-65
4.6724527648078e-67
1.4391766176168e-68
3.8888724016674e-70
9.0995176938251e-72
1.8137432647787e-73
3.0146440417788e-75
4.0591839935985e-77
4.2472897723493e-79
3.2349863802986e-81
1.5929938849299e-83
3.8007042803477e-86
0
0
0
0
0
2.7619012839126e-42
3.3375672093836e-30
-3.3713883874344e-28
-1.0897428889264e-26
-1.58216442143e-25
-1.4797834504257e-24
-1.0167667663019e-23
-5.497514611834e-23
-2.4394748227951e-22
-9.1374729142946e-22
-2.9473115048398e-21
-8.3085695659126e-21
-2.070394410835e-20
-4.6011555430996e-20
-9.1841134707134e-20
-1.6558803661618e-19
-2.7091663345376e-19
-4.0370635185648e-19
-5.4949017357466e-19
-6.843872393567e-19
-7.8010024013092e-19
-8.1149832344267e-19
-7.6405660494963e-19
-6.3867298270292e-19
-4.5251144745174e-19
-2.3556800059071e-19
-2.3528750339051e-20
1.5133390530171e-19
2.6825275203374e-19
3.2196764921755e-19
3.2128087459518e-19
2.8344049978693e-19
2.2735581463942e-19
1.6846075697458e-19
1.1647086972617e-19
7.5642948187304e-20
4.6350132984161e-20
2.6867547630643e-20
1.4754993536306e-20
7.6821899037809e-21
3.793001773316e-21
1.7761457685922e-21
7.8888443217439e-22
3.3239392484037e-22
1.3288833693008e-22
5.0420926760871e-23
1.8159577601098e-23
6.2089288327689e-24
2.0152924742955e-24
6.208767981362e-25
1.8150663657173e-25
5.0328307432348e-26
1.3228775503948e-26
3.2939235174618e-27
7.7631628815776e-28
1.7301579608996e-28
3.6424163185399e-29
7.2348042300408e-30
1.353979115943e-30
2.3839276168289e-31
3.9422627066757e-32
6.1117456371291e-33
8.8646014067552e-34
1.2001455626315e-34
1.5127962819024e-35
1.7703333911731e-36
1.9171432302377e-37
1.9141880043518e-38
1.7547644784043e-39
1.4697584816647e-40
1.1184066880915e-41
7.6800665072547e-43
4.7211537347287e-44
2.5727303103739e-45
1.2277761319793e-46
5.0524860632085e-48
1.7570179453779e-49
5.0255412779021e-51
1.141212116847e-52
2.0041097917984e-54
3.298601927962e-56
1.2973950286489e-57
1.0677179290309e-58
8.9917735945694e-60
7.0656805852119e-61
5.1672169967662e-62
3.5067076138393e-63
2.2013027316861e-64
1.2735616245455e-65
6.7629458157386e-67
3.2809188480719e-68
1.4463240423374e-69
5.7576099535581e-71
2.0547376449484e-72
6.5169484332714e-74
1.8628263140209e-75
0
0
0
0
4.5528891354233e-41
1.7082072168435e-29
-1.0445804088614e-27
-3.5847583554783e-26
-5.2291178659994e-25
-4.8627206953291e-24
-3.3105821352257e-23
-1.7710509200221e-22
-7.7696384845691e-22
-2.8752068344428e-21
-9.1546769987139e-21
-2.5447919197769e-20
-6.2450398434955e-20
-1.3649617449839e-19
-2.6763759238958e-19
-4.7370278030669e-19
-7.6108749924602e-19
-1.1159610313188e-18
-1.5009368950961e-18
-1.8600410144328e-18
-2.1299851590292e-18
-2.2525457685294e-18
-2.1848871599952e-18
-1.9096692045786e-18
-1.4470075030615e-18
-8.6257720194635e-19
-2.5954587499924e-19
2.5117019091633e-19
5.9016387354418e-19
7.3534523112605e-19
7.1968281458288e-19
6.059965485426e-19
4.5697775355911e-19
3.161882124359e-19
2.0420948067369e-19
1.2463844105434e-19
7.2462693891483e-20
4.0279567281814e-20
2.1415162393787e-20
1.0871459750575e-20
5.256853037807e-21
2.4157891455458e-21
1.0533793187047e-21
4.3541414015412e-22
1.7055091609562e-22
6.3304536608714e-23
2.2269475795344e-23
7.4259067325587e-24
2.3473898455578e-24
7.0337549147068e-25
1.9973484338432e-25
5.372918607e-26
1.3683944539399e-26
3.2971956761289e-27
7.5098907714284e-28
1.6152402251724e-28
3.2767950423504e-29
6.2617616838529e-30
1.1254701132456e-30
1.8995044993427e-31
3.0047730578475e-32
4.4458328309118e-33
6.1385813821894e-34
7.8893945251197e-35
9.4109356015535e-36
1.0385544055949e-36
1.0564200862051e-37
9.8634245566192e-39
8.4118460872999e-40
6.5157203249789e-41
4.5533229696785e-42
2.8477419834979e-43
1.5784629128041e-44
7.660808919925e-46
3.2063092376372e-47
1.1352045292165e-48
3.3249850528978e-50
7.9884858232945e-52
1.7954359733956e-53
6.900502032381e-55
5.4857618306631e-56
5.0023805281262e-57
4.3314772671237e-58
3.5031921328553e-59
2.6400423738698e-60
1.8488977161372e-61
1.1997045453603e-62
7.188640567405e-64
3.9628075349042e-65
2.0012619378539e-66
9.2141922738674e-68
3.8464797607218e-69
1.4465885404967e-70
4.864649459663e-72
1.4498691027728e-73
3.876447121096e-75
0
0
0
0
3.6983993660161e-40
6.5358200849528e-29
-2.4249923699615e-27
-9.1531028642316e-26
-1.3496017256187e-24
-1.2505548755897e-23
-8.4426044010095e-23
-4.4690037175663e-22
-1.9375663778968e-21
-7.0797065603336e-21
-2.2239134198564e-20
-6.0932749433961e-20
-1.4723244697731e-19
-3.165186374934e-19
-6.0986747119846e-19
-1.0600628132365e-18
-1.6721883813529e-18
-2.4064368762927e-18
-3.1695822590482e-18
-3.8178793137488e-18
-4.1809436785866e-18
-4.1242360974146e-18
-3.6328838163085e-18
-2.8359355695412e-18
-1.9185099386532e-18
-1.0066192730501e-18
-1.5431240932021e-19
5.7984996321939e-19
1.0978122553982e-18
1.3213653151368e-18
1.2632724746152e-18
1.0248576153138e-18
7.3157990582235e-19
4.7270438561802e-19
2.8359610021293e-19
1.6149550015252e-19
8.8663611393688e-20
4.7248031069624e-20
2.4403205641533e-20
1.2141405437808e-20
5.7784765381184e-21
2.6161838613252e-21
1.1228345138049e-21
4.5603280065163e-22
1.7516784071667e-22
6.3637231089787e-23
2.1872466449589e-23
7.1146065573798e-24
2.1905608655229e-24
6.3843356733527e-25
1.7609536764289e-25
4.5949447189305e-26
1.1335965398777e-26
2.642108967238e-27
5.8123357702308e-28
1.2055321658895e-28
2.3544042323474e-29
4.3234091518472e-30
7.4525117813899e-31
1.2036812568053e-31
1.8178601019894e-32
2.5612586857287e-33
3.3579731727134e-34
4.0849198380322e-35
4.5958459843781e-36
4.7645997484854e-37
4.5325203365594e-38
3.9372767208175e-39
3.1055097739244e-40
2.2092414213781e-41
1.4062045847296e-42
7.9310560923217e-44
3.916692285158e-45
1.669191674544e-46
6.0400198604058e-48
1.840895130429e-49
5.0333704118349e-51
1.7662361194888e-52
1.2176383175773e-53
1.15166506185e-54
1.0851242906223e-55
9.6107071778661e-57
7.9532970586657e-58
6.135225128499e-59
4.4001638296376e-60
2.9254801367812e-61
1.7972190379999e-62
1.0164618024701e-63
5.2707313019118e-65
2.4939975557162e-66
1.0710781594264e-67
4.1488748758049e-69
1.4389416068888e-70
4.4298142145845e-72
1.1978590903178e-73
2.8658314792936e-75
0
0
0
0
1.9740761492019e-39
1.9907576518224e-28
-4.2041082308824e-27
-1.872882652414e-25
-2.8182377520052e-24
-2.6107812435888e-23
-1.750266848891e-22
-9.1722970924914e-22
-3.9309880578325e-21
-1.4188659653857e-20
-4.4035204440793e-20
-1.1936028296918e-19
-2.8605983310985e-19
-6.1201250960464e-19
-1.1771047997469e-18
-2.0444850568486e-18
-3.2137403091866e-18
-4.5686148543073e-18
-5.8454645727532e-18
-6.6722823062597e-18
-6.6914653593189e-18
-5.702477797042e-18
-3.7360656901531e-18
-1.2539758829598e-18
7.4981417452108e-19
1.4882874213072e-18
1.250924108086e-18
9.8004158561876e-19
1.1441151145727e-18
1.4698373452758e-18
1.5497873494663e-18
1.3041825714857e-18
9.1105559630415e-19
5.5450155587077e-19
3.0869095903544e-19
1.6414066102213e-19
8.5788370862303e-20
4.4422161311781e-20
2.2597540167338e-20
1.1132961274883e-20
5.2467688354559e-21
2.3467402148248e-21
9.9211147512091e-22
3.9582207322175e-22
1.4900486107904e-22
5.2947129883623e-23
1.7769493299251e-23
5.6352185211454e-24
1.6891781757915e-24
4.7861938154664e-25
1.2816527559579e-25
3.2421347459419e-26
7.7427536676889e-27
1.7442167486232e-27
3.7025437288203e-28
7.397189097876e-29
1.3889566973501e-29
2.4471946630394e-30
4.0384776266641e-31
6.2294609699589e-32
8.9613799582215e-33
1.1991684618032e-33
1.4884003523394e-34
1.7080008255859e-35
1.8054698327467e-36
1.7506604868703e-37
1.549590734775e-38
1.245026813986e-39
9.0196372952279e-41
5.8450905599663e-42
3.3560372967537e-43
1.6877938860449e-44
7.3398932561561e-46
2.7348067813074e-47
8.9361584673918e-49
3.0635619686154e-50
1.6977415422872e-51
1.5351131381702e-52
1.5422522314926e-53
1.486293308612e-54
1.343141401315e-55
1.134192798298e-56
8.9286655818127e-58
6.5357578140457e-59
4.4356991169663e-60
2.7821667277053e-61
1.6068783599401e-62
8.5109680507208e-64
4.1147262907334e-65
1.8060865616496e-66
7.1527210496203e-68
2.5373167238077e-69
7.9926515083056e-71
2.2125074898783e-72
5.3134129252552e-74
1.1081341527203e-75
0
0
0
0
7.7891688515585e-39
5.0191225564764e-28
-4.9381388542487e-27
-3.111482015348e-25
-4.8571193233389e-24
-4.522866192059e-23
-3.0183496832667e-22
-1.5680042650541e-21
-6.6501258943489e-21
-2.3751598319326e-20
-7.3120595179015e-20
-1.9787136576721e-19
-4.782743970436e-19
-1.0430770279706e-18
-2.0580949228111e-18
-3.6603449822507e-18
-5.8272374719136e-18
-8.2057089030563e-18
-1.0096832002483e-17
-1.0824098094703e-17
-9.9825979389636e-18
-8.0014281481119e-18
-6.0942898405783e-18
-1.1549006679146e-18
2.1930352016323e-18
-3.4102694707472e-18
-1.3936503632673e-17
-1.3897289609979e-17
-6.9348324174233e-18
-7.1284172706184e-19
1.5820286181981e-18
1.5200814922195e-18
9.3329697138265e-19
4.9467515879406e-19
2.5209315089369e-19
1.2866870475186e-19
6.6500077980945e-20
3.4509578767177e-20
1.7617291173318e-20
8.6691646038764e-21
4.05618017971e-21
1.7917376069407e-21
7.4512694581272e-22
2.9158720161396e-22
1.0742898166547e-22
3.7295882687787e-23
1.2210649235981e-23
3.772364585428e-24
1.1000767274458e-24
3.0281611717801e-25
7.8663985759032e-26
1.9275261163793e-26
4.4518386691709e-27
9.682505727716e-28
1.9808395572276e-28
3.8066046088e-29
6.8608008454865e-30
1.15767438743e-30
1.8251453316368e-31
2.6823998213287e-32
3.6657207571599e-33
4.6447536595276e-34
5.4391571126194e-35
5.8650934449822e-36
5.799260720425e-37
5.2326797309251e-38
4.2843148086851e-39
3.1620081016567e-40
2.0871433543968e-41
1.2206973297638e-42
6.259588325799e-44
2.7877176553548e-45
1.0829901970965e-46
3.9610866002564e-48
1.8205140360847e-49
1.4052531210331e-50
1.435137159807e-51
1.4891467634465e-52
1.4636273758938e-53
1.3477778327145e-54
1.1596625794277e-55
9.3017247714721e-57
6.93737756437e-58
4.7971180705463e-59
3.0656532596404e-60
1.8040684554112e-61
9.7362895959615e-63
4.7964502146137e-64
2.145394906996e-65
8.6588412697395e-67
3.1305271574383e-68
1.0051392555224e-69
2.8363115359712e-71
6.9441634824759e-73
1.4513766587498e-74
2.5718248822071e-76
0
0
0
0
2.423378877768e-38
1.075196653068e-27
-1.669200342214e-27
-4.1614883596093e-25
-6.9547700169767e-24
-6.5709323308785e-23
-4.383932297213e-22
-2.2633469839256e-21
-9.5217712591106e-21
-3.3761674476881e-20
-1.0378307325935e-19
-2.8419271927485e-19
-7.0762183384863e-19
-1.6109422227312e-18
-3.3183938606221e-18
-6.0738906327184e-18
-9.7110789148871e-18
-1.3293842179886e-17
-1.5390648863534e-17
-1.6063475339472e-17
-1.8560864603572e-17
-1.8918568647951e-17
-1.8328557878481e-17
-9.0561863536272e-18
-6.2450045135165e-17
-6.9388939039072e-17
0.0030875557557912
-2.1250362580716e-17
-5.7505681580248e-19
1.062956435438e-18
1.4906086117204e-18
1.0466388327226e-18
5.8059771577463e-19
2.9996225755559e-19
1.5465514077167e-19
8.1269818253235e-20
4.3440246935557e-20
2.3128255358495e-20
1.1947893882917e-20
5.8759429982032e-21
2.7235267147941e-21
1.1850158112437e-21
4.8365876125279e-22
1.853060533584e-22
6.6725435179064e-23
2.2607448381331e-23
7.2139546298864e-24
2.1693068891645e-24
6.149122639914e-25
1.6429780241193e-25
4.1365128899163e-26
9.807676167472e-27
2.1881041404368e-27
4.588615938264e-28
9.033402095918e-29
1.6669501872829e-29
2.8783287581873e-30
4.6413471962711e-31
6.9736536139934e-32
9.7385156989401e-33
1.2603926817994e-33
1.5069677268135e-34
1.6584474320304e-35
1.6729601725823e-36
1.5394425873122e-37
1.2849929372625e-38
9.665928558415e-40
6.5019794170555e-41
3.8768223838636e-42
2.0307610151454e-43
9.3129330928611e-45
3.8420704198659e-46
1.6486048590407e-47
1.0168490561284e-48
9.6270398960251e-50
1.0465425456984e-50
1.1118521365634e-51
1.1132250159516e-52
1.0438147895274e-53
9.1440263225693e-55
7.466592998785e-56
5.6684490218938e-57
3.9895142068233e-58
2.5947640210152e-59
1.5539286408471e-60
8.533867521798e-62
4.2778012238064e-63
1.9468494520185e-64
7.9944283968308e-66
2.9405389685806e-67
9.6050016126995e-69
2.7571899256002e-70
6.8667798415887e-72
1.4598590502427e-73
2.593931147367e-75
3.7853794891121e-77
0
0
0
0
6.192624611103e-38
1.9933857031863e-27
9.4109803134371e-27
-4.247558386023e-25
-8.1844756306842e-24
-7.989987507574e-23
-5.3717395703557e-22
-2.7695026236641e-21
-1.1607976443441e-20
-4.1084073943412e-20
-1.2727511826392e-19
-3.581407328392e-19
-9.3484836287182e-19
-2.244117878781e-18
-4.8080909928885e-18
-8.9103654580174e-18
-1.3991714132869e-17
-1.8442227121434e-17
-2.8021894280164e-17
-4.3233234260728e-17
-5.0194617267161e-17
-4.6078912607669e-17
-1.422473250301e-16
0.20427283390471
0.70967794822386
0.96589833748144
0.97134229546534
0.74299001928359
0.29574972119057
5.8026941055066e-19
5.9844074413346e-19
4.1734287176571e-19
2.4839014099978e-19
1.4062403393518e-19
7.8978876259443e-20
4.4694929719869e-20
2.5208646632928e-20
1.3807984223585e-20
7.1881708373006e-21
3.5149481598637e-21
1.6071920318276e-21
6.8673845378464e-22
2.7451243611546e-22
1.0282177341428e-22
3.6145217584982e-23
1.1940606328215e-23
3.7103638545125e-24
1.0850712461189e-24
2.9869722562442e-25
7.7387875971974e-26
1.8862272295093e-26
4.3220429323243e-27
9.3013029346131e-28
1.8777515778635e-28
3.5509701630024e-29
6.2796980122496e-30
1.0365050897117e-30
1.5932601995136e-31
2.2750971574259e-32
3.0094400550769e-33
3.6758427602104e-34
4.1308240361344e-35
4.253246932481e-36
3.9932687546978e-37
3.3997431283147e-38
2.6077340657204e-39
1.7887488462552e-40
1.0884915069522e-41
5.8397726530258e-43
2.7795774801579e-44
1.2465560834612e-45
6.4990065933832e-47
5.1269436363225e-48
5.4797935894998e-49
6.1912940598468e-50
6.7129673755289e-51
6.8432145621884e-52
6.5309603001402e-53
5.8223357349053e-54
4.8375107219474e-55
3.7362879592007e-56
2.6749326013768e-57
1.769499205873e-58
1.0776772486447e-59
6.0180571021574e-61
3.0671370227277e-62
1.4190505909677e-63
5.9232151285099e-65
2.2143875154173e-66
7.3507650293253e-68
2.1441798226196e-69
5.4257108275671e-71
1.1718471840643e-72
2.1150470608212e-74
3.0996992973183e-76
3.5685832703756e-78
0
0
0
0
1.3367861941567e-37
3.2412210139524e-27
3.110022569294e-26
-2.5912427841674e-25
-7.5406222588888e-24
-7.9428256136994e-23
-5.472696268251e-22
-2.8453520399338e-21
-1.1982177275677e-20
-4.2730355741024e-20
-1.3513751213982e-19
-3.9695184630417e-19
-1.0966998530929e-18
-2.7642007893364e-18
-6.0718849839121e-18
-1.1214351704051e-17
-1.7080981708921e-17
-2.205457115309e-17
-3.9518545619388e-17
-5.3434061021797e-17
-3.8015371668041e-17
-1.4918621893401e-16
0.3726834633135
0.99027947239886
0.99999999999989
0.99999999999982
0.99999999999982
0.99999999999986
0.99934059133551
0.50658988514368
1.3169007641319e-19
1.1874207960131e-19
8.6900498410283e-20
5.781413177703e-20
3.6666870396657e-20
2.2585430224851e-20
1.3352145530733e-20
7.4404297670629e-21
3.8679445959443e-21
1.8693496621444e-21
8.4010308547092e-22
3.5172720644222e-22
1.3749836751137e-22
5.0296153989876e-23
1.724576944373e-23
5.5502175482663e-24
1.6779918894483e-24
4.7677477516948e-25
1.2732374465319e-25
3.1949492988992e-26
7.5289351625419e-27
1.6647729482458e-27
3.450250369142e-28
6.6931428251456e-29
1.2133616795907e-29
2.0516934726782e-30
3.228919712714e-31
4.7179734899209e-32
6.3825591037774e-33
7.9689267855964e-34
9.1496539574163e-35
9.6209338166267e-36
9.2209176742356e-37
8.0110709305088e-38
6.2693631114642e-39
4.3885712435516e-40
2.7293866859496e-41
1.5052104244172e-42
7.5145755821775e-44
3.7576298616611e-45
2.4082880759239e-46
2.2844755417456e-47
2.6319412146439e-48
3.0589553481107e-49
3.3803884801331e-50
3.5076282818965e-51
3.4065641397174e-52
3.0898705619938e-53
2.6114957016023e-54
2.0514266202785e-55
1.49349412103e-56
1.0044893331793e-57
6.2189832229589e-59
3.5298475303893e-60
1.8282539092306e-61
8.5948971684468e-63
3.6448210402332e-64
1.3841553242674e-65
4.6667285154852e-67
1.3823737038582e-68
3.5517247550592e-70
7.7876133368285e-72
1.4267056786216e-73
2.1219879512427e-75
2.4582789569406e-77
2.0896208486863e-79
0
0
0
0
2.4883621583037e-37
4.6668565524255e-27
6.2916625948899e-26
1.1390050024387e-25
-4.4641366259536e-24
-5.9427108456768e-23
-4.3985734992141e-22
-2.3629842021476e-21
-1.0190524855603e-20
-3.7316130195402e-20
-1.2305312976244e-19
-3.8431018146343e-19
-1.1287038148077e-18
-2.9560289256761e-18
-6.5697191409827e-18
-1.2014209110696e-17
-1.891518635377e-17
-2.8505428913243e-17
-4.6336744890358e-17
-4.2022460733729e-17
1.5499757727212e-17
0.22165463155624
0.99429086754027
0.99999999999985
0.99999999999974
0.99999999999968
0.99999999999967
0.99999999999974
0.99999999999986
0.99820382345257
0.33080211272232
2.314944648792e-20
2.7197684924792e-20
2.2636987118329e-20
1.6244233442189e-20
1.0692508190408e-20
6.4936839483222e-21
3.6297189701528e-21
1.8688695808593e-21
8.8866647264026e-22
3.9155645863361e-22
1.603915887602e-22
6.1257788347882e-23
2.1865305324585e-23
7.3069585171477e-24
2.288972510883e-24
6.726521344939e-25
1.8549109971699e-25
4.7996757662673e-26
1.1648930432951e-26
2.6499787979447e-27
5.6448585266447e-28
1.1245250503144e-28
2.0918072983478e-29
3.6267721090173e-30
5.8485582583096e-31
8.7510005152381e-32
1.2115773155519e-32
1.5472782143398e-33
1.8161765454508e-34
1.951390038353e-35
1.910230971287e-36
1.6944971487836e-37
1.3538321339001e-38
9.6801209186977e-40
6.1645002186311e-41
3.5113609350074e-42
1.8626432912485e-43
1.0622299981602e-44
8.2731149986937e-46
8.9483444973079e-47
1.0841453789995e-47
1.2900287547729e-48
1.4521206992832e-49
1.5335995377696e-50
1.5155370404559e-51
1.3984599383891e-52
1.2021823276235e-53
9.6033520503434e-55
7.1084269044952e-56
4.860020791484e-57
3.0581358643359e-58
1.7638492464558e-59
9.2818617081565e-61
4.4325976386001e-62
1.9091475902924e-63
7.3624210534805e-65
2.520272791206e-66
7.5785424443463e-68
1.976285478434e-69
4.3973234258263e-71
8.1736096458291e-73
1.2332130077051e-74
1.4489761191796e-76
1.2421454575654e-78
6.9200423216429e-81
0
0
0
0
4.0572946203606e-37
5.990892493775e-27
9.9902122036175e-26
6.4991878588944e-25
7.4964114949447e-25
-2.174375625358e-23
-2.2634126735957e-22
-1.3858402406309e-21
-6.5197315555237e-21
-2.5836854937835e-20
-9.3151010072072e-20
-3.193949292489e-19
-1.0045464006977e-18
-2.7109485214454e-18
-6.0445590626538e-18
-1.0929976187632e-17
-1.9172676597601e-17
-3.5346313769661e-17
-5.2957676656878e-17
-4.9003311129248e-17
2.7755575615629e-17
0.72704692001226
0.9999999999999
0.99999999999976
0.99999999999965
0.99999999999959
0.99999999999959
0.99999999999966
0.99999999999978
0.99999999999993
0.81171042923411
5.9406967345924e-21
9.3395570554412e-21
8.9646611954681e-21
6.9528530875168e-21
4.7341176871946e-21
2.8933846033835e-21
1.6046882368002e-21
8.1377092591435e-22
3.7963708235503e-22
1.6374100994512e-22
6.5557525113993e-23
2.4442131973577e-23
8.5063709884862e-24
2.7680836828293e-24
8.4319649230365e-25
2.4057986002812e-25
6.4305687412611e-26
1.6099568955308e-26
3.7733038938833e-27
8.2718585566341e-28
1.6941754370389e-28
3.2371255681913e-29
5.7603674625443e-30
9.5267019581089e-31
1.4608679066919e-31
2.071476360881e-32
2.7077426155856e-33
3.2513197406185e-34
3.5717547316944e-35
3.5732481743472e-36
3.2383278776503e-37
2.6433381348294e-38
1.9327587684985e-39
1.2633042067385e-40
7.4779548981186e-42
4.2767336685805e-43
2.8235667989416e-44
2.6038075578499e-45
3.0901971650411e-46
3.8853550112562e-47
4.7223305830878e-48
5.4134311731425e-49
5.8189994151959e-50
5.8513741476336e-51
5.492841894507e-52
4.8026101070421e-53
3.9011890341272e-54
2.9357886249466e-55
2.0402292341526e-56
1.3046731193272e-57
7.6458688107047e-59
4.0873207150827e-60
1.9825269604142e-61
8.6711588700571e-63