/*--------------------------------*- C++ -*----------------------------------*\
  =========                 |
  \\      /  F ield         | OpenFOAM: The Open Source CFD Toolbox
   \\    /   O peration     | Website:  https://openfoam.org
    \\  /    A nd           | Version:  7
     \\/     M anipulation  |
\*---------------------------------------------------------------------------*/
FoamFile
{
    version     2.0;
    format      ascii;
    class       volScalarField;
    location    "3";
    object      alpha.water;
}
// * * * * * * * * * * * * * * * * * * * * * * * * * * * * * * * * * * * * * //

dimensions      [0 0 0 0 0 0 0];

internalField   nonuniform List<scalar> 
6000
(
0
0
0
0
0
0
0
0
0
0
0
0
0
0
0
0
0
0
0
0
0
0
0
0
0
0
0
0
0
0
0
0
0
0
0
0
0
0
0
0
0
0
0
0
0
0
0
0
0
0
0
0
0
0
0
0
0
0
0
0
0
0
0
0
0
0
0
0
0
0
0
0
0
0
0
0
0
0
0
0
0
0
0
0
0
0
0
0
0
0
0
0
0
0
0
0
0
0
0
0
0
0
0
0
0
0
0
0
0
0
0
0
0
0
0
0
0
0
0
5.5883442012388e-208
8.1283697254676e-208
1.3299071172031e-207
1.1296671804453e-207
2.368774808769e-222
9.0465997766203e-189
4.2341079538447e-188
4.2101431473437e-203
6.3790047687025e-205
2.1882530527793e-189
4.3765061059567e-189
2.1461712997428e-188
7.0169052455728e-204
4.5618787100762e-189
1.5935211489109e-188
4.3692278450168e-188
1.0697286091561e-187
1.1482208583665e-203
4.9229275932378e-205
7.8631785110803e-189
1.5783862345609e-188
3.1895023843513e-205
5.1720355012596e-189
2.2883557340937e-243
7.4003850350756e-190
9.9671949510977e-207
1.6069874402908e-190
2.4457132560604e-190
2.4917987377744e-207
5.9991541438058e-191
6.2294968444361e-208
1.2407573253705e-191
1.515731441385e-191
0
3.0586268375932e-192
2.3360613166635e-208
3.114748422218e-208
1.0468234102561e-193
7.5191973630107e-208
1.8533623456892e-194
3.5845641696741e-207
3.1085733984765e-195
4.5692583712735e-206
3.1647182318679e-196
1.5224036349694e-206
3.5789898601791e-197
2.1798057414372e-197
7.3821911262277e-205
2.3766416130722e-198
2.140845747622e-198
1.0797984881556e-198
8.9308351641344e-199
7.8686470452162e-204
1.1495491650709e-199
5.7761350973684e-204
9.8150412205043e-201
7.2550702391584e-204
1.3652689713234e-201
9.0650573527262e-202
3.5678924482819e-202
2.8268438332792e-202
1.1213165883081e-202
8.6379642512236e-203
3.8257798965919e-203
2.6878972823514e-203
1.649307823892e-203
7.0533031191067e-204
4.735690893462e-204
1.9869838236017e-204
1.2962363544008e-204
5.3271824326556e-205
2.4408776021024e-205
1.5258261681882e-205
6.0765985106344e-206
3.6809601712271e-206
1.4323826121614e-206
8.405538710276e-207
4.3058720986466e-207
1.6163020407945e-207
9.0577324404151e-208
5.6203447892438e-208
0
0
0
0
0
0
0
0
0
0
0
0
0
0
0
0
0
0
0
1.4554193697832e-152
7.9907834594693e-149
3.9359500558593e-160
1.1731261419243e-138
1.8105183897828e-122
7.5173030252374e-123
1.3880853435757e-225
6.6696981150919e-122
3.3432954121609e-122
2.1020646055502e-123
2.249455437643e-122
2.2438325377455e-122
2.2721944988785e-122
3.7612576246582e-125
2.4794724294314e-125
2.3225929899761e-123
5.2354878063762e-123
2.6982684073886e-121
8.800417700913e-138
3.0103463445217e-122
9.5120537736103e-121
-1.7197762835372e-137
5.1834376002699e-119
4.0911904071983e-123
0
2.4378104754848e-122
4.299440708843e-138
2.8057107134395e-121
3.194779957086e-121
3.0838903869198e-121
2.7602032558492e-121
0
3.6726625099619e-121
1.2048610730654e-121
4.2300945412854e-122
3.2181751440418e-122
0
2.5111364625757e-123
0
4.1508728222504e-128
-1.042236409358e-141
1.3726130833036e-129
1.2841750206102e-126
0
6.2910190154561e-129
0
0
7.0480049983752e-130
-8.1960276709059e-147
1.1650267944649e-134
0
2.135829330426e-133
3.7876962498269e-134
4.0724282248304e-133
2.4473866904383e-137
0
0
3.466399513387e-136
4.4858033786931e-140
-9.1877434882474e-154
4.4051337683842e-139
0
2.5019266148049e-139
0
4.1356688833054e-144
4.0867042351066e-141
2.9413903317008e-141
9.754473706241e-142
0
1.62275405514e-146
1.4331218894492e-143
-2.3294511694604e-160
1.0426217861368e-144
0
1.7561402584933e-146
1.7320444565617e-146
8.2152439877178e-147
2.2489923875434e-147
3.3916606895219e-165
1.7350205957001e-149
8.6209516900966e-149
0
0
0
0
0
0
0
0
0
0
0
0
0
0
0
0
0
-1.5097600554891e-90
-2.9406750929538e-89
-3.6662230765998e-88
-3.2429154020345e-87
-2.08773088054e-86
-1.0693615632747e-85
3.8282907716918e-72
0
4.6721323496296e-74
5.9635260396087e-75
-3.6206281011852e-77
8.9295889943929e-101
-5.5919576809683e-85
-7.8491199022411e-79
0
-3.8349401667215e-91
1.8636110299629e-91
0
1.0068726168057e-64
6.1444392354474e-63
9.8922079964211e-65
2.4966099927259e-64
1.015684581063e-63
9.8237968530605e-64
4.7393866334023e-64
5.7714614072577e-65
3.3747494712128e-65
1.3866800895428e-64
6.4017006358115e-64
5.1652626005008e-63
1.6971194718516e-62
6.7184783585271e-62
2.6915127405907e-61
8.3654786098723e-61
3.2415953335205e-60
7.9918609122715e-60
2.583889192591e-59
6.2267319413591e-59
1.3134507213931e-58
3.4785177291854e-58
6.8414971708674e-58
1.6681345814105e-57
3.3695756009303e-57
6.2840383158619e-57
1.4379108532744e-56
2.4300620996406e-56
4.5317913213623e-56
6.5052657852046e-56
7.2569417828315e-56
8.4325916139627e-56
7.9739948141545e-56
8.3391743586623e-56
7.8013272944234e-56
6.9391002170394e-56
5.9857749036586e-56
4.1677524740595e-56
2.5308584293812e-56
9.8948453058993e-57
1.7816869829291e-57
2.6215931346539e-58
1.5188057043253e-59
1.6354189147256e-60
3.9812136428381e-61
8.1770100913701e-62
1.522348986425e-62
8.9798351326162e-63
3.3347186163992e-63
2.5825874284444e-64
1.0935111725684e-64
8.2898309377602e-66
1.2786844049741e-66
7.2228721949944e-67
2.666193898906e-67
1.7250738632903e-68
2.4367472068901e-69
1.3668164167995e-69
4.6706617082816e-70
1.3318602680243e-70
3.4847849372851e-71
8.7825526199239e-72
2.2160697195625e-72
4.6703405254862e-73
2.1820597693699e-73
0
0
0
0
0
0
0
0
0
5.3740974734063e-73
5.0324918043435e-71
1.7556344699204e-69
4.5182167644968e-68
8.3924502527948e-67
1.1840126540628e-65
2.3449750691979e-64
3.3453672605361e-63
4.3281927075596e-62
4.2062706699256e-61
3.2368701775207e-60
5.0315505954475e-59
3.0803800169215e-58
1.6665750638829e-57
1.1516136915115e-56
6.9010877517617e-56
7.7665609311395e-56
2.0393307177153e-57
2.2639197697067e-73
0
-1.4149498560667e-74
6.3112363468425e-54
0
-2.8978173052246e-71
4.2853448346743e-53
0
1.0947825009948e-49
3.7387197955646e-48
2.9887832933107e-48
5.2394369355512e-48
-1.301816525305e-52
-3.9621435358014e-56
2.0621163533934e-50
8.3464524764767e-65
4.4602044835095e-65
5.3111669601997e-51
7.1366459335187e-64
3.7030933789511e-63
1.3758773508702e-62
1.4027465540211e-51
1.2233030764278e-47
1.7445829661702e-51
1.6129840227666e-49
6.6942233316768e-60
9.3672849548574e-46
3.9502235298523e-49
1.4259757390388e-58
3.0978462185149e-47
7.420867475064e-58
6.0901337498809e-48
3.6413972129855e-57
5.6860020583788e-57
5.6310541707166e-49
2.6184574676914e-56
1.0720502247538e-49
6.9067470684652e-56
7.7216575003184e-56
4.0537629839833e-51
8.5350370627696e-56
7.7060297972153e-52
8.3447697433574e-56
7.4145226959541e-56
1.0429741233147e-51
1.4185433155917e-55
1.4750227378524e-52
7.7984834510529e-57
2.5878740777904e-57
2.1684185116754e-53
1.6695271102063e-57
1.5610783247463e-59
5.6169832487938e-59
5.8699446735924e-61
1.121149531436e-61
1.9856669424439e-56
7.7012490840114e-57
1.1951753744248e-63
1.7601462118454e-56
3.7277123387493e-59
9.2135231519582e-66
2.6243091953736e-59
2.411605482024e-59
9.4695411957848e-68
3.5963308101277e-62
2.2978827898023e-60
1.0507673883196e-60
4.9800575478745e-61
4.4947529114666e-61
4.1911483479179e-62
7.0017680916495e-62
1.4722618185728e-62
1.2713673267314e-62
0
0
0
0
0
0
0
1.1559493405282e-63
1.5637452753075e-61
1.0399260287943e-59
4.5370149134385e-58
1.4634440694415e-56
3.730075450326e-55
7.8303898470277e-54
1.3902938461411e-52
2.1245231288015e-51
2.8306615951939e-50
3.3294552923686e-49
3.5074591859851e-48
3.3672811057089e-47
3.0022032483656e-46
2.5287167814895e-45
2.0354751852318e-44
1.5722785348113e-43
1.1629850198935e-42
8.193253420882e-42
5.4653839802742e-41
3.4355554093031e-40
2.0286728937042e-39
1.1233793895042e-38
5.8301080326091e-38
2.8360682030542e-37
1.2938807971101e-36
5.5406817777855e-36
2.2290850507071e-35
8.4333883909816e-35
3.0033193439615e-34
1.0076761515865e-33
3.1881371054163e-33
9.5193388960533e-33
2.6845506046991e-32
7.1558565885989e-32
1.8042716734171e-31
4.3064369640833e-31
9.7373454784246e-31
2.0873993984197e-30
4.2456711075243e-30
8.1992154191534e-30
1.5042745670111e-29
2.6225167146045e-29
4.3434425700105e-29
6.8272652632399e-29
1.0162510516145e-28
1.4257234669727e-28
1.863968984835e-28
2.2157612063915e-28
2.351853806048e-28
2.348259634819e-28
2.3022859831853e-28
2.1757819075618e-28
1.9285708699132e-28
1.5689453838867e-28
1.1447668465493e-28
7.3076814595222e-29
3.9710794387937e-29
1.7924764306705e-29
6.6651764873788e-30
2.09647271157e-30
5.9572370100316e-31
1.6491579604393e-31
4.6501835992581e-32
1.3448589206664e-32
3.9528835469505e-33
1.1712324585353e-33
3.4874333036022e-34
1.0433561270254e-34
3.1371738349887e-35
9.4745537736915e-36
2.869269394095e-36
8.6932216800348e-37
2.6288362007647e-37
7.9188099864282e-38
2.3728194501966e-38
7.0667858574082e-39
2.0910388249924e-39
6.1464843622966e-40
1.794784455879e-40
5.2064362120059e-41
1.5005462965966e-41
4.2972515954203e-42
1.2230071704514e-42
3.4596912810544e-43
9.7295666365588e-44
2.7206972962235e-44
7.5657416006705e-45
2.0935596937281e-45
5.7445629925192e-46
1.6096079316929e-46
3.6070601922416e-47
2.0630079399306e-47
0
0
0
0
0
0
1.0336216631132e-63
2.091319287267e-61
1.8796250383654e-59
1.0492719641402e-57
4.1760190658384e-56
1.2788204898082e-54
3.1639782113964e-53
6.5350004415493e-52
1.1519390357281e-50
1.7609938389536e-49
2.3647696375527e-48
2.8185001902555e-47
3.0074268710047e-46
2.9004909789142e-45
2.5620114265712e-44
2.1073397925864e-43
1.6402878433254e-42
1.2215588001753e-41
8.740712924566e-41
6.0026560290463e-40
3.9410381114817e-39
2.4619402542488e-38
1.4567760507371e-37
8.1352663660985e-37
4.2763912654343e-36
2.112502966926e-35
9.7986817043092e-35
4.2666100983639e-34
1.7442735799495e-33
6.6980379129999e-33
2.4173373110512e-32
8.2050844118268e-32
2.621296563796e-31
7.8885437014949e-31
2.2382987798838e-30
5.9939160721768e-30
1.5165077974149e-29
3.6292856901161e-29
8.2252845709989e-29
1.7673337925739e-28
3.603623451885e-28
6.977863918185e-28
1.283652198095e-27
2.2436037196156e-27
3.7245306486263e-27
5.867036595119e-27
8.7526045879957e-27
1.2315139928005e-26
1.618325055775e-26
1.9413961816208e-26
2.0817291766113e-26
2.0841453357717e-26
2.0506757773473e-26
1.9498840222571e-26
1.7463078070885e-26
1.4406749376283e-26
1.0710152981132e-26
7.0080969825135e-27
3.9339082911009e-27
1.8504119291092e-27
7.2207326152962e-28
2.3847553255661e-28
7.0541737571728e-29
2.0067437762978e-29
5.7625026347596e-30
1.6929271419123e-30
5.0613197863681e-31
1.5288709589022e-31
4.650266247197e-32
1.4232197206717e-32
4.3815052482655e-33
1.3552325266017e-33
4.2019831705841e-34
1.3022493953677e-34
4.0226429127698e-35
1.235772391086e-35
3.7701306946463e-36
1.1414747071069e-36
3.4291722229853e-37
1.0222557708169e-37
3.0244793596828e-38
8.8826560406152e-39
2.5901086867583e-39
7.5000247774402e-40
2.1571008620564e-40
6.1636766012907e-41
1.750130991315e-41
4.9392882596722e-42
1.3857699713249e-42
3.867632248121e-43
1.0700346597122e-43
3.0228106657323e-44
6.8173742588364e-45
3.9429741330095e-45
0
0
0
0
0
4.7533845610509e-64
1.2877827935607e-61
1.5024624448436e-59
1.04906832905e-57
5.082987184351e-56
1.8559676249315e-54
5.3828578035709e-53
1.2866213786472e-51
2.6010429768039e-50
4.5303837394084e-49
6.8963361892974e-48
9.2800416300559e-47
1.1134960324459e-45
1.2005637071974e-44
1.171372352843e-43
1.0413003551827e-42
8.5117248562268e-42
6.4951904971955e-41
4.7148852493266e-40
3.3000879351065e-39
2.2318617340486e-38
1.4496274754107e-37
8.9774953504946e-37
5.2761337428422e-36
2.9357465547659e-35
1.5445760113559e-34
7.6756243724225e-34
3.5984508901116e-33
1.5895577994003e-32
6.6082758250722e-32
2.5829345407856e-31
9.4842423473983e-31
3.2696424850129e-30
1.0579045358745e-29
3.212054072889e-29
9.1530733431709e-29
2.4490648433629e-28
6.1584472744515e-28
1.4575022846233e-27
3.2533997565826e-27
6.8690091797322e-27
1.3765057878949e-26
2.6276812426119e-26
4.7933891896905e-26
8.3709479551219e-26
1.3992777270954e-25
2.2338243814939e-25
3.391698982244e-25
4.8688836336304e-25
6.5412841536385e-25
8.053366067799e-25
8.8541015818766e-25
8.9340266848248e-25
8.8278583856121e-25
8.4638240502339e-25
7.6826482142832e-25
6.4443376588759e-25
4.8906342967771e-25
3.2828195477358e-25
1.9025361201285e-25
9.3082140889131e-26
3.8018609050544e-26
1.3157738089762e-26
4.0515571525203e-27
1.1863590808604e-27
3.4756975900736e-28
1.0384526761265e-28
3.1597096365618e-29
9.7341978544504e-30
3.0259484352994e-30
9.4802650201114e-31
2.9908347188322e-31
9.4834897887634e-32
3.0133179448707e-32
9.5604059230123e-33
3.0186710556493e-33
9.4619130791321e-34
2.9399567640844e-34
9.0506036482401e-35
2.7607143625015e-35
8.3467521931114e-36
2.5022389159828e-36
7.4404772213213e-37
2.1951377564037e-37
6.4273710320726e-38
1.8682613292919e-38
5.3925942521564e-39
1.5460903911562e-39
4.4042247882866e-40
1.2467718003053e-40
3.5099250880941e-41
9.7919301636685e-42
2.7891761613578e-42
6.3304637862916e-43
3.7039560850717e-43
0
0
0
0
0
3.2504607325511e-62
6.3314867282777e-60
5.947076723989e-58
3.5899380000128e-56
1.5722595950828e-54
5.3458778689787e-53
1.4739668834668e-51
3.3994263592862e-50
6.7041705194855e-49
1.1490893122097e-47
1.7340324064091e-46
2.3265398309538e-45
2.7970116488196e-44
3.0339269588899e-43
2.9876059332457e-42
2.6822027984518e-41
2.2067258402036e-40
1.6774887180766e-39
1.1945763481638e-38
8.138431775312e-38
5.423345005578e-37
3.5760144714818e-36
2.3253475638955e-35
1.4736998062002e-34
8.9855605847347e-34
5.2141480271291e-33
2.856080358462e-32
1.4682188658525e-31
7.0559314796784e-31
3.1621896265181e-30
1.3196264117375e-29
5.1237385561637e-29
1.8500807017548e-28
6.2101046173898e-28
1.936928146458e-27
5.6098274555183e-27
1.5073169509071e-26
3.7529332775442e-26
8.6482526929916e-26
1.8431597310437e-25
3.6353203213315e-25
6.656469812827e-25
1.1393800337038e-24
1.8432145576093e-24
2.8565357228301e-24
4.2955735298504e-24
6.3194250648978e-24
9.1022972031997e-24
1.2743920173454e-23
1.7087978397449e-23
2.1407103565607e-23
2.42122206227e-23
2.4782908304603e-23
2.4580091275165e-23
2.3767029463258e-23
2.1891265380187e-23
1.8695334205115e-23
1.4501538966258e-23
9.9909665572346e-24
5.9751459703934e-24
3.0357894636429e-24
1.2948006689873e-24
4.6866959371989e-25
1.5017942518427e-25
4.5324796228042e-26
1.3572359544183e-26
4.1296748819934e-27
1.2799402709703e-27
4.0241344555463e-28
1.2793412341253e-28
4.10649347009e-29
1.3288794931665e-29
4.3241322496673e-30
1.4094655023793e-30
4.582199511917e-31
1.4800037228624e-31
4.7359945548771e-32
1.4993160372018e-32
4.6943322772612e-33
1.4541718798072e-33
4.4595539377155e-34
1.3547722704389e-34
4.0790486731191e-35
1.21772027566e-35
3.6057027018451e-36
1.0593425417531e-36
3.0891160856122e-37
8.9438693932003e-38
2.5718690271972e-38
7.3469189917188e-39
2.0865144486826e-39
5.870253811568e-40
1.6862195212486e-40
3.8513185447586e-41
2.280594751004e-41
0
0
0
0
1.029336092823e-72
1.0762262512934e-60
1.8336805347482e-58
1.5433314882092e-56
8.5338840656397e-55
3.4855186796127e-53
1.1214152185065e-51
2.9606087265594e-50
6.6014202556079e-49
1.2688370082519e-47
2.1345225560558e-46
3.1816423640542e-45
4.2387480323507e-44
5.0849592416433e-43
5.5272024654754e-42
5.4696131257481e-41
4.9511192353603e-40
4.1154008165891e-39
3.147234042924e-38
2.2256591200658e-37
1.4840846418996e-36
9.6880577680888e-36
6.4534997902901e-35
4.4744344978673e-34
3.1850934408653e-33
2.2523824647172e-32
1.5324583436969e-31
9.8092339377875e-31
5.829024108193e-30
3.1924487129097e-29
1.6055231945009e-28
7.40267565768e-28
3.1275429899371e-27
1.2108456809388e-26
4.2974522008977e-26
1.3985294795513e-25
4.1725175735212e-25
1.1408203899251e-24
2.8571157890294e-24
6.5485722942152e-24
1.3706272302381e-23
2.6085436726524e-23
4.4875333355541e-23
6.9480462412832e-23
9.7266683447116e-23
1.2554715557307e-22
1.5413166233411e-22
1.8576990740779e-22
2.2499677729645e-22
2.7656546185111e-22
3.4269208597044e-22
4.1738302296074e-22
4.7810357700939e-22
4.9867600910228e-22
4.9655268420425e-22
4.8415725797654e-22
4.5252514169751e-22
3.9382368605359e-22
3.1256598946563e-22
2.2121136351831e-22
1.3654140339615e-22
7.1982899076646e-23
3.2010765974137e-23
1.2100959096972e-23
4.0342312594208e-24
1.2564031320448e-24
3.8521561806552e-25
1.1954492306704e-25
3.7781881821791e-26
1.2132855164054e-26
3.9481367557381e-27
1.2995963032144e-27
4.318346266829e-28
1.443590452374e-28
4.8322131827302e-29
1.6113336937765e-29
5.3284202868718e-30
1.7419630562231e-30
5.6218414753132e-31
1.7909328171658e-31
5.6356902865146e-32
1.753467786498e-32
5.3989954152037e-33
1.6462436290375e-33
4.9736532546856e-34
1.4895437151861e-34
4.4239119000946e-35
1.3034846895393e-35
3.8116603879361e-36
1.1065935093513e-36
3.1903902955967e-37
9.1416488641436e-38
2.5940707803372e-38
7.5154198449644e-39
1.7272977618639e-39
1.0356646598242e-39
0
0
0
0
5.0258577525029e-72
2.3048557417852e-59
3.6629400424915e-57
2.8957975043148e-55
1.5155894242798e-53
5.9018182362715e-52
1.8225510901192e-50
4.6467161829192e-49
1.0060840920059e-47
1.8872983690868e-46
3.1138857260562e-45
4.5740105589303e-44
6.0316553461179e-43
7.193809223493e-42
7.8067586237042e-41
7.7342668412272e-40
7.0328320156153e-39
5.8943934911735e-38
4.5523762773758e-37
3.2328313493444e-36
2.1294002215762e-35
1.3562947680042e-34
8.9755798752744e-34
6.4936385709644e-33
5.0690711235375e-32
4.0300418425572e-31
3.0816889234152e-30
2.1858262332849e-29
1.4136035966737e-28
8.2883828117071e-28
4.4048475429246e-27
2.1254477519121e-26
9.3305779822903e-26
3.7333500707739e-25
1.3635794332385e-24
4.5510561545322e-24
1.3887805220366e-23
3.8751822678465e-23
9.8846341602958e-23
2.302679340887e-22
4.8892508577842e-22
9.4201203020795e-22
1.6359350235915e-21
2.5451921381441e-21
3.4999520800934e-21
4.2238543576464e-21
4.624657598828e-21
4.8618401983609e-21
5.0963185887123e-21
5.4366659730126e-21
5.9594325550507e-21
6.6767439965933e-21
7.4263229205635e-21
7.805264363604e-21
7.8006772943474e-21
7.6626718383112e-21
7.2510226680323e-21
6.4296766648819e-21
5.220826591328e-21
3.7944782322276e-21
2.4147842749766e-21
1.3185945258559e-21
6.1012815909408e-22
2.4055084958801e-22
8.3451091116911e-23
2.6865796690342e-23
8.4531050200242e-24
2.68063442696e-24
8.6509712405721e-25
2.8405799838861e-25
9.4708533768663e-26
3.2003327496677e-26
1.0931607073717e-26
3.7585690255359e-27
1.2934958440104e-27
4.4289012017799e-28
1.5009529064629e-28
5.0174309917854e-29
1.6519534568275e-29
5.3576191760597e-30
1.7134013230683e-30
5.4104279712509e-31
1.6888953351875e-31
5.2163937894604e-32
1.5952684732752e-32
4.8331709928698e-33
1.4513591043627e-33
4.3217171285907e-34
1.2766128269287e-34
3.7424692999996e-35
1.0891430517912e-35
3.1491942262786e-36
9.0145457763665e-37
2.6345262301995e-37
6.0928050292064e-38
3.7008929912844e-38
0
0
0
0
8.687648421147e-73
3.5965755175131e-58
5.4893012093115e-56
4.1768740745974e-54
2.1099005484187e-52
7.9530441051774e-51
2.3843273694038e-49
5.9186989005313e-48
1.2511145063787e-46
2.2976797180774e-45
3.7222450854168e-44
5.384982436676e-43
7.0162579202756e-42
8.2965895128382e-41
8.9592453312688e-40
8.8589498173722e-39
8.062282734371e-38
6.7848570839695e-37
5.2841022776402e-36
3.791866852989e-35
2.4961352587924e-34
1.5532566726883e-33
9.9953700337397e-33
7.2831625993584e-32
5.9790250854234e-31
5.0995504479109e-30
4.1899639394741e-29
3.1796343666235e-28
2.1867190089959e-27
1.3528842357626e-26
7.523802489902e-26
3.7727351751958e-25
1.7134854422312e-24
7.0785994074454e-24
2.6681953667253e-23
9.1937081867715e-23
2.897788867284e-22
8.3534600736161e-22
2.2005411302218e-21
5.2892792643202e-21
1.1571890705309e-20
2.2956153503596e-20
4.1048044163694e-20
6.5526341588597e-20
9.1491409091224e-20
1.0906688182135e-19
1.1353864448022e-19
1.128245085993e-19
1.0960696738417e-19
1.0260792419239e-19
9.6492637720699e-20
9.6881316923538e-20
9.9053742683101e-20
1.0117633778547e-19
1.0118579367132e-19
9.9685911545466e-20
9.4805107249497e-20
8.4892337047548e-20
7.0025295244621e-20
5.2049963612448e-20
3.4107078516375e-20
1.9301533409481e-20
9.3052576181681e-21
3.831877760764e-21
1.3853518949462e-21
4.617471198058e-22
1.4932202529979e-22
4.8451464388149e-23
1.5983893803008e-23
5.3717676121557e-24
1.8368855995388e-24
6.3786299598559e-25
2.2421616630725e-25
7.9378797288595e-26
2.8118106579246e-26
9.8972088933952e-27
3.4414320608923e-27
1.1775981244258e-27
3.9592073693999e-28
1.3082897590814e-28
4.2548532938315e-29
1.3642299231255e-29
4.3189186380833e-30
1.3516343486688e-30
4.1852183046173e-31
1.2830452399203e-31
3.8964922776199e-32
1.1728230004851e-32
3.5004238370649e-33
1.0364082970191e-33
3.045160261224e-34
8.8866127554947e-35
2.5664941663441e-35
7.567743016773e-36
1.761010653819e-36
1.084252372234e-36
0
0
0
0
0
4.3666723035824e-57
6.5014973528777e-55
4.8285174585305e-53
2.3827796335353e-51
8.7838678817638e-50
2.5784424376464e-48
6.2746508396273e-47
1.3018040741449e-45
2.3495400361016e-44
3.7460890673036e-43
5.3424665712903e-42
6.8757331275668e-41
8.0492041992484e-40
8.628422028092e-39
8.494116153951e-38
7.7143693550625e-37
6.4933955039764e-36
5.0777625888432e-35
3.6811321363881e-34
2.4470557357697e-33
1.502536325127e-32
9.2586442289212e-32
6.5206425363462e-31
5.3942940311723e-30
4.7656637195369e-29
4.0924265902749e-28
3.2508334561814e-27
2.340195161342e-26
1.5186262419738e-25
8.880279610656e-25
4.6807369465335e-24
2.2269114936867e-23
9.5907614430162e-23
3.7527780004384e-22
1.3384214661453e-21
4.3598362948509e-21
1.2982823759949e-20
3.533885750406e-20
8.7836884183216e-20
1.9895227213542e-19
4.0926539545405e-19
7.608327465965e-19
1.2663921723756e-18
1.8469163712655e-18
2.2722932387901e-18
2.3725270927786e-18
2.3439147786728e-18
2.2310774862087e-18
1.9935850328173e-18
1.6646970489996e-18
1.3727928844522e-18
1.2077428405863e-18
1.1446051455348e-18
1.113057635916e-18
1.0778505968479e-18
1.0184851985755e-18
9.1806432325829e-19
7.7009445588122e-19
5.866177977178e-19
3.9642261431697e-19
2.3270884948134e-19
1.169558455689e-19
5.0333101603138e-20
1.8979912621511e-20
6.5571481535945e-21
2.1820883695989e-21
7.252626892365e-22
2.4481399493859e-22
8.4285657579992e-23
2.9586393302481e-23
1.0567690871862e-23
3.8264317902667e-24
1.3963155306734e-24
5.0967872725425e-25
1.8465229321574e-25
6.5963664026162e-26
2.3135428307193e-26
7.9527601328599e-27
2.680384241461e-27
8.8724150137948e-28
2.8903987782478e-28
9.2848266363084e-29
2.9453682884324e-29
9.2370118634989e-30
2.8661805779463e-30
8.8051896489012e-31
2.6796764311264e-31
8.0827198496825e-32
2.4175453496367e-32
7.1729245099119e-33
2.1130929489738e-33
6.1582934406401e-34
1.8324814311752e-34
4.2903490212996e-35
2.6791571155483e-35
0
0
0
0
0
4.3009130998177e-56
6.3050081914828e-54
4.6099176803618e-52
2.2398572395172e-50
8.1319237388305e-49
2.3517423401627e-47
5.6405917637415e-46
1.1538516597704e-44
2.0542616185005e-43
3.2326951185506e-42
4.5531842656533e-41
5.7932149407151e-40
6.7129155252427e-39
7.1341067222082e-38
6.979224362271e-37
6.3118175409704e-36
5.2994087121891e-35
4.1439111574017e-34
3.0206695678847e-33
2.034875761867e-32
1.2525635101207e-31
7.408201573013e-31
4.8557001047561e-30
3.8543288075041e-29
3.4211801984608e-28
3.0161569887342e-27
2.4756782743496e-26
1.8512104181674e-25
1.2531411876296e-24
7.6755948461485e-24
4.2613670066062e-23
2.1459160154419e-22
9.794082692322e-22
4.0501419039839e-21
1.5204173920069e-20
5.1980113459257e-20
1.6225039016591e-19
4.6272381607595e-19
1.2043400070485e-18
2.8528767893947e-18
6.1236404731862e-18
1.1842984834878e-17
2.0433638547419e-17
3.0768587948129e-17
3.8788951305961e-17
4.0833458478502e-17
4.0301950044608e-17
3.8114359452409e-17
3.3363021903346e-17
2.6306456765249e-17
1.9172805673566e-17
1.4147241508827e-17
1.1650154745646e-17
1.0574531904718e-17
9.9265439221594e-18
9.2606089283662e-18
8.3575146621752e-18
7.1066409880298e-18
5.5435039779608e-18
3.8671018067782e-18
2.3586580415276e-18
1.2376678904581e-18
5.5720209069506e-19
2.1927281293809e-19
7.8554754481444e-20
2.6914726530276e-20
9.1687842987038e-21
3.1688738878917e-21
1.1184534429891e-21
4.0333384230972e-22
1.4830335768539e-22
5.5363187105913e-23
2.0844282970087e-23
7.8490930243204e-24
2.9307309290005e-24
1.0771806641119e-24
3.8784079591166e-25
1.365163847725e-25
4.6993593618799e-26
1.5850109801962e-26
5.2508768160062e-27
1.7125760693526e-27
5.5093640680356e-28
1.7506054143652e-28
5.4998047765269e-29
1.7096682798476e-29
5.2620885701036e-30
1.6044664849497e-30
4.8490615603219e-31
1.4531743644018e-31
4.3224118864665e-32
1.2714166477044e-32
3.8186506818892e-33
8.9948147490174e-34
5.7004298910847e-34
0
0
0
7.3550454128017e-84
1.7059079724627e-69
3.5369268443231e-55
5.1354468008271e-53
3.7173973536134e-51
1.7877663785495e-49
6.4234873267931e-48
1.8383882760708e-46
4.3636231552911e-45
8.833710002161e-44
1.5564429380365e-42
2.4241446867103e-41
3.3794495049148e-40
4.2572651965937e-39
4.8864804089954e-38
5.1473431808529e-37
4.9989765567731e-36
4.4950498092345e-35
3.757485761781e-34
2.9299613146537e-33
2.1365012975014e-32
1.4526859203431e-31
9.0635395329853e-31
5.2564387246289e-30
3.1634164322724e-29
2.2798801694594e-28
1.9469696982821e-27
1.7283460623728e-26
1.4562505955448e-25
1.1268225338887e-24
7.9276830080444e-24
5.0665590317432e-23
2.9486387542108e-22
1.5665418919122e-21
7.609866216958e-21
3.3858875120784e-20
1.3769485081266e-19
5.0973373129526e-19
1.7149566234139e-18
5.2415246989595e-18
1.453069791801e-17
3.6404623429682e-17
8.2011216248785e-17
1.649769618033e-16
2.930566049285e-16
4.4907453947483e-16
5.6685679149336e-16
5.9295717168983e-16
5.8301708316305e-16
5.4479842521921e-16
4.643457913174e-16
3.4874375575125e-16
2.3274179397058e-16
1.4920355196163e-16
1.0575008952597e-16
8.7449445229944e-17
7.8751639051832e-17
7.2274424859574e-17
6.5135062133907e-17
5.6006906242754e-17
4.4667166469034e-17
3.2150192884065e-17
2.0380152479355e-17
1.1171728638618e-17
5.2649533287953e-18
2.1641283678916e-18
8.0490511027949e-19
2.8427345779608e-19
9.9344308210926e-20
3.5175296000946e-20
1.2733200983734e-20
4.7195468347193e-21
1.7874962197539e-21
6.884889401842e-22
2.6769497838996e-22
1.0410846710835e-22
4.0118326161036e-23
1.5195866795127e-23
5.6268076874231e-24
2.031766829711e-24
7.1553477994182e-25
2.4625491845512e-25
8.305028266228e-26
2.7523694437995e-26
8.9844914170593e-27
2.8937638920211e-27
9.2079428611112e-28
2.8972908169257e-28
9.0212321860584e-29
2.7813276487283e-29
8.4956703916402e-30
2.5721526784693e-30
7.726536778605e-31
2.2943079093558e-31
6.9567955500973e-32
1.6484916883293e-32
1.0609589116214e-32
0
0
0
4.4545268749117e-81
4.1869232122962e-68
2.4797929946535e-54
3.5803740011815e-52
2.5759079282917e-50
1.2307235514499e-48
4.3917160572141e-47
1.2479831316518e-45
2.940652334105e-44
5.9084587180435e-43
1.0330450672183e-41
1.5963307839953e-40
2.2074004576636e-39
2.7580506641799e-38
3.1396645318021e-37
3.2800786422644e-36
3.1615884592552e-35
2.8241914957002e-34
2.3474724175546e-33
1.8221265256638e-32
1.3246046951232e-31
9.0303833141962e-31
5.7100212014735e-30
3.3240612465073e-29
1.8811760980868e-28
1.1902424297125e-27
9.1623988458849e-27
7.8795682613855e-26
6.7319411334383e-25
5.3773742875305e-24
3.9329351544437e-23
2.6190095564285e-22
1.5903266478833e-21
8.8627015713921e-21
4.5702079298912e-20
2.1803153452793e-19
9.624219474389e-19
3.9276450193645e-18
1.4601266273007e-17
4.8726806719044e-17
1.4528519671561e-16
3.8663568626521e-16
9.1591226109673e-16
1.9203043592345e-15
3.5227224765085e-15
5.5021080284605e-15
6.963170938754e-15
7.2311086430333e-15
7.0749008351244e-15
6.5108002273345e-15
5.373156892162e-15
3.8256947128161e-15
2.3489264123154e-15
1.3330666432478e-15
8.237130023365e-16
6.2013252614914e-16
5.3578454421168e-16
4.8479541897381e-16
4.3691419393055e-16
3.7982175927948e-16
3.0931012782379e-16
2.2932807243162e-16
1.508613444677e-16
8.6325396386386e-17
4.2611865504142e-17
1.8335747580663e-17
7.1037821293773e-18
2.5945739984347e-18
9.3217111090846e-19
3.3848168177101e-19
1.2571755259425e-19
4.7906243654683e-20
1.8696742643577e-20
7.4346515133207e-21
2.9877796304227e-21
1.2014319544415e-21
4.7850785824223e-22
1.8711792057197e-22
7.1400939169295e-23
2.6504201410828e-23
9.5685355988152e-24
3.3659590646152e-24
1.1572011944519e-24
3.9007699936423e-25
1.2929266470476e-25
4.2232156269884e-26
1.3616067409887e-26
4.3379976330921e-27
1.3668484999008e-27
4.2622715963671e-28
1.3161865329829e-28
4.0267969467483e-29
1.221867702808e-29
3.6633932402605e-30
1.121687213686e-30
2.6736454986795e-31
1.7486916890654e-31
0
0
0
6.337556644046e-83
7.8454573666487e-67
1.5055448063751e-53
2.1677609891124e-51
1.5544765081923e-49
7.3989699743352e-48
2.6291328666561e-46
7.4370246292752e-45
1.7438661615527e-43
3.485662188226e-42
6.0609927220734e-41
9.3117185008178e-40
1.2796954905784e-38
1.5886127583479e-37
1.7961841533527e-36
1.863101591859e-35
1.7830542344268e-34
1.58200525247e-33
1.3066732959121e-32
1.0084706149681e-31
7.2946986998838e-31
4.9610843011372e-30
3.1574328937018e-29
1.8617537836564e-28
1.0308090813455e-27
5.8415814148105e-27
3.8405249609089e-26
2.9792039384294e-25
2.4830694008834e-24
2.0197003965583e-23
1.5340733085524e-22
1.0683074843897e-21
6.7818959951212e-21
3.9604108882707e-20
2.1513383532519e-19
1.0932815258839e-18
5.1921823446768e-18
2.276129434908e-17
9.2696465069771e-17
3.482170317212e-16
1.161929577496e-15
3.3753807528356e-15
8.5074342899433e-15
1.857206188445e-14
3.4802388043947e-14
5.4562936164773e-14
6.8132278781409e-14
7.0040261390995e-14
6.8150667531164e-14
6.1778873549418e-14
4.9480611677886e-14
3.3642230315602e-14
1.9320147057679e-14
9.9749525681739e-15
5.4855227783467e-15
3.7691766701634e-15
3.1243726650132e-15
2.7932680513442e-15
2.5219518214708e-15
2.2173011367185e-15
1.8419033449785e-15
1.4042163483677e-15
9.5696251931926e-16
5.7112417027384e-16
2.9553534941971e-16
1.3352034676757e-16
5.4133364263995e-17
2.0545823210057e-17
7.6170444642244e-18
2.8426741339809e-18
1.0845154697543e-18
4.2514178785877e-19
1.7106202571642e-19
7.0265645870521e-20
2.920873141125e-20
1.2157156067414e-20