/*--------------------------------*- C++ -*----------------------------------*\
  =========                 |
  \\      /  F ield         | OpenFOAM: The Open Source CFD Toolbox
   \\    /   O peration     | Website:  https://openfoam.org
    \\  /    A nd           | Version:  7
     \\/     M anipulation  |
\*---------------------------------------------------------------------------*/
FoamFile
{
    version     2.0;
    format      ascii;
    class       surfaceScalarField;
    location    "3";
    object      alphaPhi0.water;
}
// * * * * * * * * * * * * * * * * * * * * * * * * * * * * * * * * * * * * * //

dimensions      [0 3 -1 0 0 0 0];

internalField   nonuniform List<scalar> 
11840
(
0
0
0
0
0
0
0
0
0
0
0
0
0
0
0
0
0
0
0
0
0
0
0
0
0
0
0
0
0
0
0
0
0
0
0
0
0
0
0
0
0
0
0
0
0
0
0
0
0
0
0
0
0
0
0
0
0
0
0
0
0
0
0
0
0
0
0
0
0
0
0
0
0
0
0
0
0
0
0
0
0
0
0
0
0
0
0
0
0
0
0
0
0
0
0
0
0
0
0
0
0
0
0
0
0
0
0
0
0
0
0
0
0
0
0
0
0
0
0
0
0
0
0
0
0
0
0
0
0
0
0
0
0
0
0
0
0
0
0
0
0
0
0
0
0
0
0
0
0
0
0
0
0
0
0
0
0
0
0
0
0
0
0
0
0
0
0
0
0
0
0
0
0
0
0
0
0
0
0
0
0
0
0
0
0
0
0
0
0
0
0
0
0
0
0
0
0
0
0
0
0
0
0
0
0
0
0
0
0
0
0
0
0
0
0
0
0
0
0
0
0
0
0
0
0
0
0
0
0
0
0
0
0
0
0
0
0
2.4837085338839e-210
-2.1008758597164e-235
4.0641848627338e-210
2.0320924313669e-210
6.6495355859757e-210
3.3247677928277e-210
5.9322098847327e-210
4.1016008723913e-210
1.078583615406e-210
4.8536262693267e-210
4.0207110118313e-191
0
2.0953197628909e-190
9.6072302531969e-191
3.8096722961653e-191
1.7143525332744e-190
6.9266769021189e-192
3.1170046059534e-191
1.2593958003853e-192
-3.8097779953852e-191
1.9451138248696e-191
0
9.5385391099679e-191
0
1.734279838176e-191
7.8042592717919e-191
2.1467664518006e-191
5.3669161295014e-192
7.0823162173819e-191
0
1.9418790422297e-190
0
4.7543493740271e-190
0
8.6442715891403e-191
3.8899222151131e-190
1.5716857434801e-191
7.0725858456603e-191
3.4947460049246e-191
0
7.0150499313818e-191
0
1.2754636238876e-191
5.7395863074942e-191
2.2986824450043e-191
0
4.1794226272805e-192
1.8807401822762e-191
3.7001925175378e-192
1.8500962587689e-192
6.7276227591598e-193
3.0274302416218e-192
7.496356367963e-193
1.5938548500185e-193
1.0869836693602e-192
0
1.9763339442913e-193
8.8935027493105e-193
2.6662907305803e-193
0
4.847801328328e-194
2.1815105977475e-193
5.6234126201894e-194
4.9021028344174e-195
6.7365841839335e-194
0
1.2248334879879e-194
5.5117506959456e-194
1.359389705597e-194
0
2.47161764654e-195
1.112227940943e-194
4.4938502664365e-196
2.0222326198964e-195
4.6525484900271e-196
0
8.4591790727782e-197
3.80663058275e-196
8.2371659808411e-197
0
1.4976665419727e-197
6.7394994388697e-197
1.3815881771006e-197
0
2.5119785039824e-198
1.1303903267007e-197
1.5823591159339e-198
7.9117955796697e-199
2.8770165750524e-199
1.2946574584691e-198
1.7894949300895e-199
8.9474746504476e-200
1.0899028707186e-199
5.449514353593e-200
1.9816418420461e-200
8.9173868127692e-200
1.1883208065361e-200
5.9416040326805e-201
9.5148699894312e-201
0
5.3989924407782e-201
2.6994962203891e-201
3.9692600729486e-201
0
7.2171569436859e-202
3.2475632517177e-201
5.109107400315e-202
0
9.29169704637e-203
4.180108443847e-202
4.9075206102522e-203
2.4537603051261e-203
8.9513056610739e-204
4.0135774070048e-203
6.0678620947706e-204
0
4.0289143789894e-204
0
1.9266619220722e-204
1.5341937527612e-204
1.256375037013e-204
0
5.9359696893558e-205
4.2855318359399e-205
3.839095222766e-205
0
1.912889948296e-205
9.56444974148e-206
1.1946210143784e-205
0
7.3302569950754e-206
0
3.5279086638735e-206
1.7689827492172e-206
2.1047515082053e-206
0
9.9349191180083e-207
4.9674595590042e-207
5.7610504640034e-207
0
2.6635969063738e-207
1.3318212133707e-207
1.2204388010512e-207
6.102194005256e-208
6.781449636392e-208
0
3.0382992553172e-208
1.5191496276586e-208
1.6359822983232e-208
0
7.1619130796167e-209
3.5809566150465e-209
3.7357949823449e-209
0
1.9137209327318e-209
0
8.0815102039724e-210
4.0407551019863e-210
4.0256588624067e-210
0
1.4050861976146e-210
0
0
0
0
0
0
0
0
0
0
0
0
0
0
0
0
0
0
0
0
0
0
0
0
0
0
0
0
0
0
0
0
0
0
0
0
0
0
7.2770968489159e-155
3.6385484244579e-155
3.9953917297347e-151
1.9976958648673e-151
3.6321742997823e-151
3.6321742998611e-152
6.7178761075671e-141
3.0180398945762e-141
8.6700880637485e-125
0
3.3021823696182e-125
1.6574254552983e-125
3.3021823696182e-125
0
3.2692113084665e-124
1.6378622876206e-124
9.8930288438801e-125
4.573769918428e-124
4.2054333731873e-125
1.9768011794986e-125
1.169619072922e-124
5.6449588735317e-126
1.1083038000329e-124
5.4844378734279e-125
1.1360413789058e-124
5.6685930404455e-125
7.2645912685913e-126
1.1101578763373e-124
1.1502581346126e-125
2.6324289106524e-126
1.704810270151e-125
5.8592746323091e-126
3.9303258443633e-125
0
1.2908423139334e-123
0
2.1646976969431e-124
3.5341724926395e-123
3.5058560621541e-124
0
4.1333657695367e-123
0
4.1333657695367e-123
0
3.5340462995135e-122
0
3.5342807570442e-122
0
7.7064295946422e-124
3.4572164610977e-122
7.6302520253577e-124
0
7.6302520253577e-124
0
1.2983912702214e-123
0
1.4965445903328e-123
0
1.4185049455792e-123
0
1.1575722959779e-123
0
1.1575722959779e-123
0
6.0952873488551e-124
0
3.452729448519e-124
0
2.3186877293013e-124
0
1.462365650683e-124
0
2.0436720398244e-125
1.2579984467006e-124
1.3498113787303e-125
0
4.2021526380093e-127
1.3077898523502e-125
4.2010056982352e-127
0
1.0618943219012e-128
4.0948162660451e-127
1.061515048172e-128
0
6.9341500660135e-129
0
2.5336222932875e-130
6.6807878366848e-129
2.3534459458796e-130
0
4.2789926288721e-131
1.9255466829924e-130
5.912520724226e-132
3.6877405564495e-131
3.822240701381e-132
0
1.1899304810897e-133
3.7032476532721e-132
1.1895849607835e-133
0
2.2980345913729e-135
1.1666046148698e-133
1.6290754772985e-135
0
1.6820999003449e-135
0
2.5466602106118e-136
0
2.5458289006977e-136
0
4.6287798194504e-137
2.0829509187526e-136
1.6762223906903e-138
4.4611575803814e-137
4.6773671432795e-139
0
4.6758218640066e-139
0
1.8300377952839e-140
4.4928180844783e-139
1.6783296125749e-140
0
2.2600090397392e-141
1.452328708601e-140
1.3876196309619e-141
0
3.3621139621299e-143
1.3539984913406e-141
3.3606719087333e-143
0
1.9194267880553e-143
0
8.7365584426766e-144
0
5.1600201135873e-144
0
1.266810589938e-145
5.0333390545935e-144
1.2662183069875e-145
0
7.347332554605e-146
0
9.7753494709658e-147
6.3697976075084e-146
5.850842762672e-147
0
1.7391318257753e-148
5.6769295800945e-147
1.2496618940001e-148
0
5.8562523528764e-149
0
2.2625371428736e-149
0
1.3952247490274e-149
0
4.090904156787e-151
1.3543157074595e-149
3.5007340718193e-151
0
0
0
0
0
0
0
0
0
0
0
0
0
0
0
0
0
0
0
0
0
0
0
0
0
0
0
0
0
0
0
0
0
0
0
0
-7.5488002774457e-93
-3.7744001387229e-93
-1.4703375464769e-91
-7.3516877323845e-92
-1.8331115382999e-90
-9.1655576914994e-91
-1.6214577010173e-89
-8.1072885050863e-90
-1.04386544027e-88
-5.2193272013501e-89
-5.3468078163736e-88
-2.6734039081868e-88
1.7656040160807e-74
1.1319598848533e-74
5.9581019652793e-76
1.7060229964279e-74
5.605372278167e-76
0
1.5629713989434e-76
3.5586711368068e-76
2.7686641109558e-77
1.2854114897737e-76
1.4168998630121e-78
2.6269741246546e-77
9.4460732248284e-79
4.7229254721261e-79
1.6863422340178e-79
7.7455229709029e-79
3.0660769076668e-80
1.3797345432511e-79
5.5746853988667e-81
2.5086083677805e-80
7.1995908490769e-82
4.8547263139553e-81
2.9362007852582e-82
4.2633900638187e-82
7.3394263634247e-67
3.3234487110159e-67
3.069923272509e-65
1.5192908393216e-65
1.68755120555e-66
3.2152581502366e-65
2.227857533955e-66
1.5192908393216e-66
5.4454358160075e-66
5.1251969397347e-66
4.8904140181625e-66
4.8233811306683e-66
1.3828004674584e-66
2.5870209065502e-66
2.4459027513044e-67
5.9050561900835e-67
2.2293989682474e-67
2.752228551285e-67
1.1949795019149e-66
7.6928935565257e-67
6.1036515321289e-66
4.1372472373576e-66
4.671780808677e-65
3.2900658556598e-65
1.4548642126568e-64
1.0468789255577e-64
5.6883085468714e-64
3.5700608457536e-64
2.2318299349409e-63
1.4828278591778e-63
6.8616870704035e-63
4.455491937095e-63
2.4783491241389e-62
1.3607655899114e-62
6.4835001176609e-62
4.8516416450991e-62
2.0095789977633e-61
1.4021231297931e-61
4.6889129013874e-61
3.700227136298e-61
9.9426162596724e-61
7.8299388127948e-61
2.5420024881719e-60
1.8388463201378e-60
5.0797648929482e-60
4.0542169696937e-60
1.2122230788909e-59
8.8154374507566e-60
2.409363615807e-59
1.9788692242461e-59
4.544502987951e-59
3.7071306240736e-59
9.9652577111623e-59
7.5868256814181e-59
1.673203544507e-58
1.4141291540184e-58
2.9189038000313e-58
2.383282151099e-58
3.7773519364097e-58
3.6519535362414e-58
4.1017952129286e-58
4.1088874025138e-58
4.4113655108386e-58
4.4113139731137e-58
4.2757715979911e-58
4.5516613752845e-58
4.3847899243904e-58
4.3845253017462e-58
4.0342473291252e-58
4.4268086010072e-58
3.4632450706133e-58
3.9329625363501e-58
2.8021542994532e-58
3.1487476894227e-58
1.7835278865199e-58
2.3673948480459e-58
9.2804756841527e-59
1.3450141996512e-58
2.8156702012878e-59
6.1591024170035e-59
4.6162660497061e-60
1.6370636638805e-59
9.3657998911242e-61
2.5623843506164e-60
1.7379341931019e-61
7.2477279855045e-61
3.3367528455154e-62
1.3741186679405e-61
6.3929331341794e-63
2.6249829129791e-62
1.1922177219811e-63
5.0521005655403e-63
1.9566271289844e-64
9.6887202771681e-64
5.0980625533391e-65
1.2906749402705e-64
1.2189227499962e-65
3.308866075646e-65
2.0674498461895e-66
9.6853051458232e-66
4.9184755630486e-67
1.3717359489198e-66
9.7540604282217e-68
3.7923586335351e-67
1.5921329165849e-68
7.9322557935018e-68
4.1260680362972e-69
1.0523000744746e-68
9.7863400154381e-70
2.6795318136466e-69
1.7562465347498e-70
7.7442541934485e-70
2.9873341597733e-71
1.4147039163748e-70
7.6673887820217e-72
1.9799421662574e-71
1.9585382822537e-72
4.884743368269e-72
4.9398700881822e-73
1.2283837431112e-72
1.2348607657145e-73
3.0836527983203e-73
3.0767782226379e-74
7.6947862403096e-74
7.4620344590168e-75
1.925459687864e-74
2.1576861715229e-75
4.4306918190976e-75
1.7350089615211e-75
0
0
0
0
0
0
0
0
0
0
0
0
0
0
0
0
0
0
5.615127459497e-75
2.8133182685076e-75
5.2425375660874e-73
2.6937107884869e-73
1.8107097588718e-71
9.3641381474492e-72
4.5867169127021e-70
2.4020188756588e-70
8.4132449972131e-69
4.5162482701925e-69
1.1862586876938e-67
6.349697279208e-68
2.3544453855742e-66
1.2522279964721e-66
3.3365315255119e-65
1.8166208043607e-65
4.2256862678057e-64
2.303149956734e-64
4.0108250920582e-63
2.2645029960088e-63
3.1551686839328e-62
1.7313838404909e-62
4.7950398617367e-61
2.6880508961949e-61
2.8088060330019e-60
1.6693238482863e-60
1.5204233061911e-59
8.7588940035895e-60
1.0653319785394e-58
6.2230152778611e-59
3.9916224058357e-58
3.6242840978263e-58
4.0504795462511e-58
4.2854172409463e-58
7.9318581922066e-59
2.9620187148187e-58
1.4622052551496e-59
6.4696529370571e-59
2.6585038437164e-60
1.1963548707779e-59
1.0347099354478e-60
1.6237939082687e-60
3.3365260984769e-56
2.6101217871994e-56
6.1385340316469e-57
2.7226726953122e-56
1.2129840739889e-57
4.9255499576579e-57
1.9030728983169e-55
0
1.1763398604415e-55
7.2673303787548e-56
8.9283177273472e-52
3.4745941231199e-52
1.9267733753489e-50
1.7854068263416e-50
1.6058402554522e-50
2.4803256509655e-50
2.812889108476e-50
1.9671548266279e-50
2.6849672795933e-51
2.5446165843183e-50
9.9618163947348e-52
2.1079531247804e-51
1.8307651056733e-52
4.0068185822747e-52
3.3319719097076e-53
1.4975679147025e-52
3.0290700285812e-54
3.0290649068496e-53
2.6159027562729e-53
0
9.0367480585613e-54
4.2204132590732e-53
3.5681293579564e-54
1.6056593998578e-53
6.4875538594326e-55
2.9193739724398e-54
6.7173775093485e-54
0
4.1497667420241e-51
0
4.1148750827315e-51
0
3.2580657554551e-51
7.3362164962003e-51
3.2580657555861e-51
5.5561263916811e-62
6.4310730000389e-49
0
6.4153126696556e-49
0
1.1666753834343e-49
5.2486372862433e-49
1.3767488625511e-49
0
2.5032819526854e-50
1.1264206673945e-49
2.9164011661611e-50
0
1.9318817975758e-51
2.7232129918133e-50
1.9318818876856e-51
0
2.2750239033444e-51
0
4.1364110528802e-52
1.8613831643052e-51
4.7646604078108e-52
0
8.6630663270979e-53
3.8983621918794e-52
1.5751436091425e-53
7.0880112323684e-53
1.8016667822491e-53
0
3.276197196718e-54
1.4741399181241e-53
3.6901986803615e-54
0
5.6882712798184e-55
3.1222384833534e-54
5.6957751223939e-55
0
6.978933578235e-55
0
6.9832112630537e-55
0
7.0631015712455e-55
0
1.2089143213907e-55
5.8548052694267e-55
2.199597173993e-56
9.8906425947263e-56
1.4832774596998e-56
0
1.483283545748e-56
0
4.9055216602086e-58
1.4342391592975e-56
4.9055590060072e-58
0
5.1169975629517e-59
4.393898973145e-58
5.1170738569714e-59
0
3.9362259209017e-59
0
3.2364695891395e-59
0
3.2364703445283e-59
0
1.1369884675833e-59
0
1.1302950954491e-59
0
2.3380829261172e-61
1.1069142724605e-59
1.99418183093e-61
0
1.6522920590794e-61
0
8.810145352974e-63
1.5641906116224e-61
8.8665470948631e-63
0
5.1866829375006e-63
0
3.4628816468696e-63
0
2.544429283699e-63
0
6.4702096470299e-64
1.166815364599e-63
4.2161221651856e-64
1.9446922743316e-64
1.4692396800667e-64
1.9446922743316e-64
7.071951050727e-65
4.2540143501004e-65
3.3424398465074e-65
0
0
0
0
0
0
0
0
0
0
0
0
0
0
1.2223339351621e-65
6.1173858473404e-66
1.64238775875e-63
8.2695740481678e-64
1.0845938672827e-61
5.4985485544496e-62
4.6978702841041e-60
2.3991735152564e-60
1.5041935715534e-58
7.7405638013262e-59
3.8052115201034e-57
1.97354519865e-57
7.9266540905904e-56
4.1443610299447e-56
1.3961146526618e-54
7.3608810108629e-55
2.1154761497955e-53
1.1252164391678e-53
2.7938938997597e-52
1.4997325230184e-52
3.2570420293025e-51
1.7645725313705e-51
3.4019021832207e-50
1.8593816426791e-50
3.2408940638249e-49
1.7853094740318e-49
2.8708043690362e-48
1.591739582286e-48
2.4050632179456e-47
1.3405307048912e-47
1.9267195803331e-46
1.0788299108924e-46
1.4810626707933e-45
8.331338096429e-46
1.0894972348841e-44
6.1611503845176e-45
7.6260318598264e-44
4.3397049531835e-44
5.0489729870073e-43
2.8943875126391e-43
3.1470047458861e-42
1.8191893613777e-42
1.8410215487026e-41
1.0740979136054e-41
1.0092496227611e-40
5.9471240557603e-41
5.1819638331799e-40
3.0860002963703e-40
2.4924747924312e-39
1.5009239034889e-39
1.1237660658426e-38
6.8460190605993e-39
4.7533132093575e-38
2.9307915595619e-38
1.8880032518256e-37
1.1786921213376e-37
7.048811075438e-37
4.457598979055e-37
2.4759902582055e-36
1.5867131764891e-36
8.190266695134e-36
5.3209493849111e-36
2.5535213256173e-35
1.6824822258442e-35
7.5098440063492e-35
5.0204335604189e-35
2.0850443346256e-34
1.4148313164442e-34
5.4692346163333e-34
3.7685457899658e-34
1.3564251318715e-33
9.4946099586762e-34
3.1831510363446e-33
2.2643541112402e-33
7.0737821162887e-33
5.1157633998582e-33
1.4897910131833e-32
1.0957620611897e-32
2.9758902379987e-32
2.2268931257418e-32
5.6419455756505e-32
4.2970708847385e-32
1.0157206688136e-31
7.8773727216414e-32
1.7365780746621e-31
1.3722522249148e-31
2.8181553552264e-31
2.2710040970615e-31
4.3347364670435e-31
3.5670052268569e-31
6.2996650214276e-31
5.3055441081584e-31
8.5869919569157e-31
7.4370963189281e-31
1.0780824014387e-30
9.7111160794424e-31
1.2102680477288e-30
1.1521114930978e-30
1.2345061107797e-30
1.2236891254877e-30
1.2327085416264e-30
1.2267989061518e-30
1.193505887195e-30
1.203872411722e-30
1.0991261289571e-30
1.1370242604514e-30
9.370504220164e-31
1.0081665117761e-30
7.2417381406255e-31
8.212866070068e-31
4.9533809985613e-31
6.0136698938234e-31
2.9213159606549e-31
3.8662542083164e-31
1.448005851642e-31
2.1302435957543e-31
5.9455763020109e-32
9.8666089562059e-32
2.0507765712485e-32
3.8332358327833e-32
6.2522537379314e-33
1.2835622598457e-32
1.8019863956846e-33
3.9048332574089e-33
5.155257135464e-34
1.1393329489878e-33
1.4913426209365e-34
3.2994987869251e-34
4.364009921544e-35
9.6088268320933e-35
1.2864774405539e-35
2.8186069894717e-35
3.8111232420062e-36
8.316168625434e-36
1.1341567654764e-36
2.4657044469322e-36
3.3917655646759e-37
7.3464588603659e-37
1.0192890788035e-37
2.1998148316806e-37
3.0753172925633e-38
6.6173499355056e-38
9.2995548241132e-39
1.9973650184342e-38
2.8125370476222e-39
6.0385012657568e-39
8.489820873703e-40
1.8248100061283e-39
2.5533992146796e-40
5.501693553815e-40
7.6423657041344e-41
1.6523399253382e-40
2.2745440237943e-41
4.9380479600653e-41
6.7287567528255e-42
1.4674596356756e-41
1.9781480314772e-42
4.3347234912532e-42
5.7786950500101e-43
1.272486466649e-42
1.6774311865183e-43
3.7119781305171e-43
4.838655643448e-44
1.0760101844756e-43
1.387107325203e-44
3.0996266910506e-44
3.9523515018264e-45
8.8741465464236e-45
1.1195040603065e-45
2.5253625787473e-45
3.1527601517934e-46
7.1443901109999e-46
8.8291820864377e-47
2.0096581113619e-46
2.459321898857e-47
5.6215110237714e-47
6.8112560673923e-48
1.5643675159934e-47
1.8835758856021e-48
4.3230555532778e-48
5.036375665145e-49
1.2052048568079e-48
1.6638270701659e-49
2.975331598301e-49
1.4242989589536e-49
0
0
0
0
0
0
0
0
0
0
0
0
1.0943098707109e-65
5.4630974829328e-66
2.2034659168226e-63
1.0998824805984e-63
1.9690061025878e-61
9.8585323427537e-62
1.0922546401987e-59
5.4947520932126e-60
4.3181528197605e-58
2.184947417007e-58
1.3131948900232e-56
6.6879534006776e-57
3.2258280027963e-55
1.6544021310018e-55
6.6135092677522e-54
3.4170728037322e-54
1.1568093002356e-52
6.0241148159912e-53
1.7542659111938e-51
9.2112766604006e-52
2.3360983793557e-50
1.2373243988299e-50
2.7602279530106e-49
1.4752469207382e-49
2.9191391443027e-48
1.5746792721436e-48
2.7908402673479e-47
1.5190854006009e-47
2.4455187306501e-46
1.3418973600173e-46
1.9978620885204e-45
1.1035098976549e-45
1.5462867903042e-44
8.58522338716e-45
1.1457836217821e-43
6.38977074383e-44
8.1573769296446e-43
4.5695913882251e-43
5.5710536795427e-42
3.1367875284321e-42
3.6344575832515e-41
2.0587658072618e-41
2.2538729334479e-40
1.2857449154881e-40
1.3226515630832e-39
7.6062208597565e-40
7.3184713883977e-39
4.2468194634175e-39
3.8084466132479e-38
2.2320423619727e-38
1.8610122580717e-37
1.1024755079193e-37
8.5327920158645e-37
5.1131911098182e-37
3.6702245889059e-36
2.2261587116811e-36
1.481300215426e-35
9.0995900957232e-36
5.6122933014434e-35
3.493527135244e-35
1.9973275220843e-34
1.2604621005808e-34
6.6815568847396e-34
4.2767283766002e-34
2.1026446241577e-33
1.3656397790268e-33
6.2299723343391e-33
4.1073400495834e-33
1.7395913782987e-32
1.1646010173236e-32
4.5824724210131e-32
3.1161440633921e-32
1.1400810456099e-31
7.8768946077482e-32
2.6821047024487e-31
1.8832014369328e-31
5.9736902756156e-31
4.2634653430401e-31
1.261014606819e-30
9.1506216562459e-31
2.5252618847606e-30
1.8637715693705e-30
4.8004227553367e-30
3.6051036040784e-30
8.6651237172612e-30
6.6255834326873e-30
1.4851272508563e-29
1.1570622312983e-29
2.4154935725191e-29
1.9194222591626e-29
3.7233257692554e-29
3.0217015069392e-29
5.4241974334181e-29
4.5053712058411e-29
7.4210508263591e-29
6.3355234694612e-29
9.3828606160704e-29
8.3179318491706e-29
1.0648753875868e-28
9.9621807054927e-29
1.0927408580549e-28
1.0685212087549e-28
1.09345936197e-28
1.0747897373424e-28
1.0634238718317e-28
1.0580559745887e-28
9.8783575931327e-29
1.0060318552044e-28
8.5242002951041e-29
9.0114501105551e-29
6.6961133320975e-29
7.4443350044097e-29
4.6803134448186e-29
5.5526619773641e-29
2.8399539225632e-29
3.6572891694419e-29
1.4599603260827e-29
2.078827737898e-29
6.2621116782957e-30
1.000506244074e-29
2.2612869979188e-30
4.0586166934067e-30
7.1765786046389e-31
1.4177895559585e-30
2.130988546795e-31
4.4692116004228e-31
6.2282865770236e-32
1.3397485103525e-31
1.8339407010738e-32
3.9626191041842e-32
5.4612939476613e-33
1.1757191408641e-32
1.6404855733938e-33
3.5135093420682e-33
4.9598911749676e-34
1.0572014047333e-33
1.5085520417286e-34
3.2010317106854e-34
4.6159819542212e-35
9.751939496844e-35
1.4203240581745e-35
2.9887307596688e-35
4.388357592322e-36
9.2067214743963e-36
1.3583406298016e-36
2.8457187812082e-36
4.2009960805365e-37
8.8048027925399e-37
1.2949684366044e-37
2.7201353510721e-37
3.9710159240008e-38
8.3721163682988e-38
1.2098999836705e-38
2.5628930837962e-38
3.6603992279267e-39
7.795059985297e-39
1.0993490643939e-39
2.3543059825119e-39
3.2776303451554e-40
7.0593581123103e-40
9.7013543270024e-41
2.1014118941939e-40
2.8510407508724e-41
6.2105068866073e-41
8.3202688427201e-42
1.8224775604276e-41
2.411627263256e-42
5.3110689210674e-42
6.9439590441635e-43
1.5373178512502e-42
1.986638845171e-43
4.4207211673827e-43
5.6485703170519e-44
1.263165629795e-43
1.5964462388805e-44
3.587224386766e-44
4.486257545029e-45
1.0126620930454e-44
1.2531136716244e-45
2.8430062309741e-45
3.494107057463e-46
7.9233001150278e-46
9.4146265680694e-47
2.2275891271992e-46
3.1398384335881e-47
5.5336107366331e-47
2.6837239705453e-47
0
0
0
0
0
0
0
0
0
0
5.0357413641508e-66
2.5040907820981e-66
1.3594166996138e-63
6.7429394706879e-64
1.5787224557215e-61
7.8304030790864e-62
1.0964097170722e-59
5.4493332820324e-60
5.2811633383498e-58
2.6341643814259e-58
1.9162449227304e-56
9.60263219033e-57
5.521182399364e-55
2.7820007785697e-55
1.3106776899177e-53
6.6448784963352e-54
2.6308696670456e-52
1.3427641270952e-52
4.548472941437e-51
2.3383058118374e-51
6.8706564187917e-50
3.5594394546842e-50
9.1714275155869e-49
4.7904236897133e-49
1.0912832826924e-47
5.749392289742e-48
1.1664504888783e-46
6.2010126844799e-47
1.1279929747853e-45
6.052435012125e-46
9.938366620875e-45
5.3818097372732e-45
8.0565750952648e-44
4.3992179450811e-44
6.1056526865831e-43
3.3556953422723e-43
4.40872177267e-42
2.4340148255871e-42
3.0718734511941e-41
1.7020913751925e-41
2.0672956779238e-40
1.1504493006459e-40
1.3346921383575e-39
7.4727504373764e-40
8.2071813147299e-39
4.6311197297266e-39
4.7851771791117e-38
2.7248190139623e-38
2.6396762652792e-37
1.518112917006e-37
1.3759904108355e-36
7.9974318272778e-37
6.7701556946943e-36
3.9788428011196e-36
3.1401846606817e-35
1.8671706889044e-35
1.3712681181158e-34
8.2543724064655e-35
5.6308872669193e-34
3.4335674210869e-34
2.1720626778977e-33
1.3425483611713e-33
7.8642302804199e-33
4.9304631638361e-33
2.6710004382406e-32
1.6996650361124e-32
8.5069179251106e-32
5.4978977923156e-32
2.5404288309626e-31
1.6685082139753e-31
7.1147997878687e-31
4.7513223763379e-31
1.8697611176639e-30
1.270149020024e-30
4.6156907398229e-30
3.1903260704215e-30
1.0721249174259e-29
7.5402069395166e-30
2.3489000607395e-29
1.6804335492671e-29
4.8693502013905e-29
3.5415068452806e-29
9.586754957134e-29
7.0824783079964e-29
1.7991690415143e-28
1.3489775920396e-28
3.2279405760977e-28
2.4548902751419e-28
5.543284000591e-28
4.2765828612905e-28
9.1030471859606e-28
7.1318819985997e-28
1.4250542855407e-27
1.1362004335887e-27
2.1159858645808e-27
1.7223433247903e-27
2.9572399377362e-27
2.4695669881012e-27
3.8312385793523e-27
3.3145017383005e-27
4.471539345636e-27
4.0751337262187e-27
4.6675659995382e-27
4.4793671678186e-27
4.6762713272184e-27
4.5409206323058e-27
4.5847010888848e-27
4.491671218679e-27
4.3066853921254e-27
4.3094138929442e-27
3.7729568078129e-27
3.910907560485e-27
3.0200235852287e-27
3.2852131914169e-27
2.1599336063238e-27
2.500952069884e-27
1.3486220052949e-27
1.6890674419456e-27
7.1821841856588e-28
9.9011608381025e-28
3.2115007648057e-28
4.9447896954111e-28
1.2119291262008e-28
2.0906903361561e-28
4.0024977090871e-29
7.6106124986971e-29
1.2257093256228e-29
2.4861891639061e-29
3.6647527209208e-30
7.6645992784585e-30
1.0994422094373e-30
2.3177212597837e-30
3.3337593358731e-31
7.0115951399977e-31
1.0208226853568e-31
2.1358129550985e-31
3.151382475206e-32
6.5571692526078e-32
9.8024046615273e-33
2.0286626540647e-32
3.0714402878329e-33
6.3239862794032e-33
9.6855830950277e-34
1.9854384076486e-33
3.0674875424152e-34
6.2692204187521e-34
9.7277376501844e-35
1.9862226020914e-34
3.0788148514662e-35
6.294774835469e-35
9.6969018629453e-36
1.9894321824606e-35
3.0328415558521e-36
6.2539138545875e-36
9.4084747264293e-37
1.9519708672043e-36
2.8936472301584e-37
6.0432086794444e-37
8.823215062644e-38
1.8551290801057e-37
2.667763523898e-38
5.6466459399235e-38
8.0004604353708e-39
1.7044641626895e-38
2.3803411441701e-39
5.103440900866e-39
7.0279583862654e-40
1.5160764855092e-39
2.0596663665921e-40
4.4696243488272e-40
5.9931830217997e-41
1.3080541614669e-40
1.7319184418308e-41
3.801024073691e-41
4.9718904324063e-42
1.097010710612e-41
1.4182305856444e-42
3.1453668756811e-42
4.0210347185575e-43
8.9614146787899e-43
1.1328353996158e-43
2.5383078512916e-43
3.1851751644823e-44
7.1347289982858e-44
8.648869014805e-45
2.0230189519565e-44
2.9123500678509e-45
5.0567737218509e-45
2.485269642061e-45
0
0
0
0
0
0
0
0
0
0
3.4433856457933e-64
1.688202542115e-64
6.6762322934498e-62
3.2745141236264e-62
6.2392083822703e-60
3.0642221337129e-60
3.7457315613272e-58
1.8439857858407e-58
1.6309684674184e-56
8.0557464793046e-57
5.5116101089152e-55
2.733619120405e-55
1.509984461882e-53
7.5255336131171e-54
3.4594821145108e-52
1.733593000011e-52
6.7757738126606e-51
3.4159711652447e-51
1.1530844032922e-49
5.8515438140534e-50
1.7271700170116e-48
8.827351342338e-49
2.2994332720248e-47
1.1842104274359e-47
2.7421892024877e-46
1.4237604760299e-46
2.9496538714913e-45
1.5446738575354e-45
2.8794027266434e-44
1.521543055798e-44
2.561793995142e-43
1.3664932930821e-43
2.0886281011035e-42
1.1245970853124e-42
1.5743457353837e-41
8.5486139969209e-42
1.1135129965512e-40
6.0835526105904e-41
7.553241864779e-40
4.1395334446647e-40
5.0220291018963e-39
2.7558303279938e-39
3.3057159068059e-38
1.8179583190526e-38
2.1437613294868e-37
1.1851370339001e-37
1.3526008391505e-36
7.5415486687815e-37
8.1956150926242e-36
4.6193838456028e-36
4.717965920234e-35
2.6920190906604e-35
2.5598277304754e-34
1.4799085219458e-34
1.3016745490091e-33
7.6297108643493e-34
6.1801062464769e-33
3.6747712575509e-33
2.7331303615173e-32
1.6495521128982e-32
1.1243022559194e-31
6.8914770154458e-32
4.2985278917927e-31
2.6775887406243e-31
1.5267199327066e-30
9.6711978047125e-31
5.0351748783356e-30
3.2462085645288e-30
1.5411535242339e-29
1.0121515226835e-29
4.3743325840627e-29
2.929594912238e-29
1.1501221175363e-28
7.8642969623331e-29
2.7975531937002e-28
1.9556466269727e-28
6.2876641200004e-28
4.4995758888321e-28
1.3051931710902e-27
9.5714722431603e-28
2.5056560373399e-27
1.8835071023622e-27
4.4688365664231e-27
3.4395331507293e-27
7.4694379113321e-27
5.8689383363881e-27
1.1849103055598e-26
9.4598729456266e-27
1.8094322401607e-26
1.4599524097265e-26
2.6916489309513e-26
2.1852864679519e-26
3.9230893268393e-26
3.1992440458271e-26
5.5886072019013e-26
4.5864025980665e-26
7.6974673220253e-26
6.3952818916462e-26
1.0049653558812e-25
8.5488023481377e-26
1.2035096589227e-25
1.0684672047097e-25
1.2871642312729e-25
1.2070834122213e-25
1.2937109859211e-25
1.2403317863345e-25
1.2781973246491e-25
1.232294321155e-25
1.2152541498898e-25
1.1935401211759e-25
1.082255204346e-25
1.0985801814479e-25
8.8396529527812e-26
9.3965773302023e-26
6.4756057385065e-26
7.3100300879692e-26
4.1608419282553e-26
5.0653479282505e-26
2.2932819009105e-26
3.0612433466512e-26
1.0670736073111e-26
1.584499178838e-26
4.2008940911201e-27
6.9710853186791e-27
1.4429093903556e-27
2.641280330518e-27
4.5606187635711e-28
8.9412266621831e-28
1.3967487712767e-28
2.8371196206425e-28
4.2741777786306e-29
8.7808364423569e-29
1.3207679391996e-29
2.7110827692125e-29
4.1254566219543e-30
8.4243899146416e-30
1.3012856170059e-30
2.6408341049713e-30
4.1428748214287e-31
8.3547742721022e-31
1.3305623777111e-31
2.6674085320872e-31
4.3046683601369e-32
8.5875764623172e-32
1.3989526829537e-32
2.7825167597381e-32
4.5496800369374e-33
9.0456019006693e-33
1.4748185292668e-33
2.9391554443773e-33
4.749027874131e-34
9.5100649717956e-34
1.5156103682868e-34
3.0551697444098e-34
4.7885254267955e-35
9.7265092160677e-35
1.4974389216098e-35
3.0659747597931e-35
4.6360453680771e-36
9.5676816888501e-36
1.4216482093264e-36
2.9565101448608e-36
4.3199408073764e-37
9.0501752541022e-37
1.3013028821378e-37
2.7454660241916e-37
3.8873218642391e-38
8.2569929386383e-38
1.1519737119239e-38
2.4628019530858e-38
3.3876576921054e-39
7.2876542298905e-39
9.8892341441476e-40
2.140136995917e-39
2.8666085973416e-40
6.2392272910174e-40
8.2535724239913e-41
1.8063060758901e-40
2.3612068832148e-41
5.1943993886264e-41
6.7100637615738e-42
1.4845620724891e-41
1.9026392881537e-42
4.2089865505116e-42
5.2068892725975e-43
1.2037609005758e-42
1.7706084724081e-43
3.0277461151099e-43
1.5084115852484e-43
0
0
0
0
0
0
0
0
1.0951352621344e-74
4.9073298888647e-75
1.1404132207936e-62
5.5068504564205e-63
1.9327515990617e-60
9.3535887985407e-61
1.6177840278206e-58
7.8494575466593e-59
8.894521028257e-57
4.3288599171105e-57
3.6113053623263e-55
1.7638946719664e-55
1.1547629375875e-53
5.6634850956373e-54
3.0293800840439e-52
1.4925874056769e-52
6.7107872188597e-51
3.3232096883012e-51
1.2811870661415e-49
6.3797261984612e-50
2.1403471172921e-48
1.0722240922539e-48
3.1673898495352e-47
1.5971160001413e-47
4.1882173430528e-46
2.1267877883116e-46
4.9853342806251e-45
2.5507956039228e-45
5.3751045713535e-44
2.7725967005065e-44
5.2743846893964e-43
2.7440168814828e-43
4.7327375305316e-42
2.4845643679998e-42
3.897899162154e-41
2.0660226787353e-41
2.9527268502062e-40
1.5804765578152e-40
2.07021971764e-39
1.1174224808991e-39
1.3731226937267e-38
7.4424668065718e-39
8.961803182365e-38
4.8510678897743e-38
5.9927273190896e-37
3.2313915420577e-37
4.1727715753282e-36
2.2473575628939e-36
2.9743997492777e-35
1.608899044431e-35
2.0976489598564e-34
1.1451356974627e-34
1.4180716655114e-33
7.8367674399171e-34
8.9935073885575e-33
5.0398510824596e-33
5.2836105476331e-32
3.0055050836322e-32
2.8558769248461e-31
1.6503286021579e-31
1.415337900588e-30
8.3149685668337e-31
6.4218995181599e-30
3.8385936108555e-30
2.6664666724884e-29
1.62299804093e-29
1.0132471233199e-28
6.2858116503397e-29
3.5249165687255e-28
2.2309622529549e-28
1.1227525800917e-27
7.2581906032087e-28
3.2732861397453e-27
2.1642554698816e-27
8.7301982859582e-27
5.9124639918234e-27
2.1287965910756e-26
1.4791611832538e-26
4.7397669821542e-26
3.3858561097925e-26
9.60720071227e-26
7.0755888804793e-26
1.763450051887e-25
1.344059451346e-25
2.912889218014e-25
2.3068944332335e-25
4.3212873077896e-25
3.5623261371247e-25
5.8204053636089e-25
4.9725280362562e-25
7.3087936980717e-25
6.3971963905456e-25
8.8481629482873e-25
7.8219276050327e-25
1.0635907751833e-24
9.3799682926253e-25
1.2935303331923e-24
1.1293096497188e-24
1.597268138488e-24
1.3793771613755e-24
1.972382885039e-24
1.6991422507308e-24
2.3489285591356e-24
2.0596576598867e-24
2.5678622442481e-24
2.3517918486914e-24
2.5987178252996e-24